 written on 19May2026 at 16:33:46 
          18
         225
    4    2    2    2    2    2    2    2    2    2    2    2    2    2    4
    2    1    1    1    1    1    1    1    1    1    1    1    1    1    2
    2    1    1    1    1    1    1    1    1    1    1    1    1    1    2
    2    1    1    1    1    1    1    1    1    1    1    1    1    1    2
    2    1    1    1    1    1    1    1    1    1    1    1    1    1    2
    2    1    1    1    1    1    1    1    1    1    1    1    1    1    2
    2    1    1    1    1    1    1    1    1    1    1    1    1    1    2
    2    1    1    1    1    1    1    1    1    1    1    1    1    1    2
    2    1    1    1    1    1    1    1    1    1    1    1    1    1    2
    2    1    1    1    1    1    1    1    1    1    1    1    1    1    2
    2    1    1    1    1    1    1    1    1    1    1    1    1    1    2
    2    1    1    1    1    1    1    1    1    1    1    1    1    1    2
    2    1    1    1    1    1    1    1    1    1    1    1    1    1    2
    2    1    1    1    1    1    1    1    1    1    1    1    1    1    2
    4    2    2    2    2    2    2    2    2    2    2    2    2    2    4
   -7   -7    0    1    1   -0.000005   -0.000000
   -7   -7    0    2    1   -0.000196   -0.000137
   -7   -7    0    3    1    0.000784    0.000155
   -7   -7    0    4    1    0.000020    0.000146
   -7   -7    0    5    1    0.000042   -0.000036
   -7   -7    0    6    1    0.000089    0.000007
   -7   -7    0    7    1    0.000020   -0.000088
   -7   -7    0    8    1   -0.000188   -0.000071
   -7   -7    0    9    1   -0.000190   -0.000040
   -7   -7    0   10    1   -0.000037    0.000019
   -7   -7    0   11    1    0.000003   -0.000034
   -7   -7    0   12    1   -0.000029   -0.000021
   -7   -7    0   13    1    0.000004    0.000010
   -7   -7    0   14    1   -0.000024   -0.000004
   -7   -7    0   15    1   -0.000003   -0.000018
   -7   -7    0   16    1    0.000026   -0.000049
   -7   -7    0   17    1   -0.000006    0.000005
   -7   -7    0   18    1    0.000039    0.000018
   -7   -7    0    1    2   -0.000196    0.000137
   -7   -7    0    2    2    0.000006    0.000000
   -7   -7    0    3    2   -0.000344    0.000200
   -7   -7    0    4    2   -0.000590   -0.000103
   -7   -7    0    5    2    0.000246   -0.000076
   -7   -7    0    6    2   -0.000055    0.000005
   -7   -7    0    7    2    0.000014   -0.000046
   -7   -7    0    8    2    0.000017   -0.000038
   -7   -7    0    9    2    0.000115   -0.000088
   -7   -7    0   10    2   -0.000154   -0.000004
   -7   -7    0   11    2    0.000063    0.000028
   -7   -7    0   12    2   -0.000040   -0.000012
   -7   -7    0   13    2    0.000007    0.000036
   -7   -7    0   14    2   -0.000020   -0.000026
   -7   -7    0   15    2    0.000055    0.000022
   -7   -7    0   16    2    0.000054    0.000012
   -7   -7    0   17    2   -0.000020    0.000010
   -7   -7    0   18    2    0.000043    0.000014
   -7   -7    0    1    3    0.000784   -0.000155
   -7   -7    0    2    3   -0.000344   -0.000200
   -7   -7    0    3    3   -0.000008   -0.000000
   -7   -7    0    4    3    0.000054    0.000030
   -7   -7    0    5    3    0.000037    0.000063
   -7   -7    0    6    3   -0.000006    0.000043
   -7   -7    0    7    3   -0.000055    0.000002
   -7   -7    0    8    3    0.000066   -0.000022
   -7   -7    0    9    3    0.000003    0.000011
   -7   -7    0   10    3    0.000018   -0.000004
   -7   -7    0   11    3    0.000020    0.000022
   -7   -7    0   12    3    0.000010   -0.000005
   -7   -7    0   13    3    0.000000   -0.000006
   -7   -7    0   14    3    0.000012   -0.000001
   -7   -7    0   15    3   -0.000011    0.000003
   -7   -7    0   16    3    0.000005    0.000009
   -7   -7    0   17    3   -0.000215    0.000020
   -7   -7    0   18    3   -0.000099   -0.000053
   -7   -7    0    1    4    0.000020   -0.000146
   -7   -7    0    2    4   -0.000590    0.000103
   -7   -7    0    3    4    0.000054   -0.000030
   -7   -7    0    4    4    0.000009    0.000000
   -7   -7    0    5    4    0.000000   -0.000036
   -7   -7    0    6    4   -0.000055    0.000094
   -7   -7    0    7    4    0.000132   -0.000014
   -7   -7    0    8    4    0.000035   -0.000037
   -7   -7    0    9    4    0.000009    0.000001
   -7   -7    0   10    4    0.000002    0.000003
   -7   -7    0   11    4    0.000000    0.000005
   -7   -7    0   12    4    0.000012   -0.000003
   -7   -7    0   13    4   -0.000027   -0.000012
   -7   -7    0   14    4    0.000018   -0.000021
   -7   -7    0   15    4   -0.000008    0.000020
   -7   -7    0   16    4   -0.000005    0.000018
   -7   -7    0   17    4   -0.000074    0.000085
   -7   -7    0   18    4    0.000131    0.000004
   -7   -7    0    1    5    0.000042    0.000036
   -7   -7    0    2    5    0.000246    0.000076
   -7   -7    0    3    5    0.000037   -0.000063
   -7   -7    0    4    5    0.000000    0.000036
   -7   -7    0    5    5   -0.000033   -0.000000
   -7   -7    0    6    5    0.000077   -0.000041
   -7   -7    0    7    5    0.000180    0.000017
   -7   -7    0    8    5    0.000140    0.000006
   -7   -7    0    9    5    0.000002   -0.000009
   -7   -7    0   10    5   -0.000007   -0.000004
   -7   -7    0   11    5   -0.000007    0.000071
   -7   -7    0   12    5   -0.000007    0.000008
   -7   -7    0   13    5   -0.000094    0.000025
   -7   -7    0   14    5    0.000023   -0.000019
   -7   -7    0   15    5   -0.000019    0.000050
   -7   -7    0   16    5    0.000009    0.000031
   -7   -7    0   17    5    0.000112   -0.000016
   -7   -7    0   18    5   -0.000023   -0.000011
   -7   -7    0    1    6    0.000089   -0.000007
   -7   -7    0    2    6   -0.000055   -0.000005
   -7   -7    0    3    6   -0.000006   -0.000043
   -7   -7    0    4    6   -0.000055   -0.000094
   -7   -7    0    5    6    0.000077    0.000041
   -7   -7    0    6    6    0.000073    0.000000
   -7   -7    0    7    6   -0.000164    0.000096
   -7   -7    0    8    6    0.000139    0.000088
   -7   -7    0    9    6    0.000011    0.000010
   -7   -7    0   10    6    0.000000   -0.000013
   -7   -7    0   11    6   -0.000002   -0.000015
   -7   -7    0   12    6   -0.000008   -0.000020
   -7   -7    0   13    6    0.000009    0.000019
   -7   -7    0   14    6    0.000092    0.000001
   -7   -7    0   15    6   -0.000006   -0.000016
   -7   -7    0   16    6   -0.000007   -0.000037
   -7   -7    0   17    6   -0.000012   -0.000010
   -7   -7    0   18    6   -0.000019   -0.000028
   -7   -7    0    1    7    0.000020    0.000088
   -7   -7    0    2    7    0.000014    0.000046
   -7   -7    0    3    7   -0.000055   -0.000002
   -7   -7    0    4    7    0.000132    0.000014
   -7   -7    0    5    7    0.000180   -0.000017
   -7   -7    0    6    7   -0.000164   -0.000096
   -7   -7    0    7    7    0.000026    0.000000
   -7   -7    0    8    7   -0.000192   -0.000002
   -7   -7    0    9    7    0.000028    0.000009
   -7   -7    0   10    7    0.000010    0.000003
   -7   -7    0   11    7    0.000107   -0.000021
   -7   -7    0   12    7    0.000010    0.000000
   -7   -7    0   13    7    0.000009    0.000022
   -7   -7    0   14    7   -0.000031    0.000002
   -7   -7    0   15    7   -0.000021   -0.000011
   -7   -7    0   16    7    0.000042    0.000005
   -7   -7    0   17    7    0.000022   -0.000033
   -7   -7    0   18    7    0.000016   -0.000040
   -7   -7    0    1    8   -0.000188    0.000071
   -7   -7    0    2    8    0.000017    0.000038
   -7   -7    0    3    8    0.000066    0.000022
   -7   -7    0    4    8    0.000035    0.000037
   -7   -7    0    5    8    0.000140   -0.000006
   -7   -7    0    6    8    0.000139   -0.000088
   -7   -7    0    7    8   -0.000192    0.000002
   -7   -7    0    8    8   -0.000052    0.000000
   -7   -7    0    9    8    0.000027    0.000012
   -7   -7    0   10    8   -0.000011    0.000006
   -7   -7    0   11    8    0.000032    0.000017
   -7   -7    0   12    8   -0.000012    0.000028
   -7   -7    0   13    8   -0.000002    0.000023
   -7   -7    0   14    8    0.000010    0.000016
   -7   -7    0   15    8   -0.000006   -0.000007
   -7   -7    0   16    8    0.000037    0.000006
   -7   -7    0   17    8   -0.000048    0.000014
   -7   -7    0   18    8   -0.000003    0.000014
   -7   -7    0    1    9   -0.000190    0.000040
   -7   -7    0    2    9    0.000115    0.000088
   -7   -7    0    3    9    0.000003   -0.000011
   -7   -7    0    4    9    0.000009   -0.000001
   -7   -7    0    5    9    0.000002    0.000009
   -7   -7    0    6    9    0.000011   -0.000010
   -7   -7    0    7    9    0.000028   -0.000009
   -7   -7    0    8    9    0.000027   -0.000012
   -7   -7    0    9    9    0.000003   -0.000000
   -7   -7    0   10    9   -0.000003   -0.000001
   -7   -7    0   11    9   -0.000000    0.000009
   -7   -7    0   12    9   -0.000003   -0.000002
   -7   -7    0   13    9   -0.000005    0.000003
   -7   -7    0   14    9   -0.000000   -0.000002
   -7   -7    0   15    9   -0.000002    0.000008
   -7   -7    0   16    9    0.000001    0.000005
   -7   -7    0   17    9    0.000087   -0.000003
   -7   -7    0   18    9    0.000013    0.000008
   -7   -7    0    1   10   -0.000037   -0.000019
   -7   -7    0    2   10   -0.000154    0.000004
   -7   -7    0    3   10    0.000018    0.000004
   -7   -7    0    4   10    0.000002   -0.000003
   -7   -7    0    5   10   -0.000007    0.000004
   -7   -7    0    6   10    0.000000    0.000013
   -7   -7    0    7   10    0.000010   -0.000003
   -7   -7    0    8   10   -0.000011   -0.000006
   -7   -7    0    9   10   -0.000003    0.000001
   -7   -7    0   10   10   -0.000007   -0.000000
   -7   -7    0   11   10    0.000003    0.000006
   -7   -7    0   12   10    0.000001    0.000003
   -7   -7    0   13   10   -0.000002    0.000002
   -7   -7    0   14   10    0.000007   -0.000001
   -7   -7    0   15   10    0.000003    0.000001
   -7   -7    0   16   10    0.000001    0.000014
   -7   -7    0   17   10   -0.000021    0.000017
   -7   -7    0   18   10    0.000019    0.000007
   -7   -7    0    1   11    0.000003    0.000034
   -7   -7    0    2   11    0.000063   -0.000028
   -7   -7    0    3   11    0.000020   -0.000022
   -7   -7    0    4   11    0.000000   -0.000005
   -7   -7    0    5   11   -0.000007   -0.000071
   -7   -7    0    6   11   -0.000002    0.000015
   -7   -7    0    7   11    0.000107    0.000021
   -7   -7    0    8   11    0.000032   -0.000017
   -7   -7    0    9   11   -0.000000   -0.000009
   -7   -7    0   10   11    0.000003   -0.000006
   -7   -7    0   11   11   -0.000005   -0.000000
   -7   -7    0   12   11    0.000006   -0.000007
   -7   -7    0   13   11   -0.000034   -0.000003
   -7   -7    0   14   11   -0.000004   -0.000005
   -7   -7    0   15   11   -0.000004    0.000015
   -7   -7    0   16   11   -0.000001    0.000025
   -7   -7    0   17   11    0.000007   -0.000018
   -7   -7    0   18   11   -0.000015   -0.000004
   -7   -7    0    1   12   -0.000029    0.000021
   -7   -7    0    2   12   -0.000040    0.000012
   -7   -7    0    3   12    0.000010    0.000005
   -7   -7    0    4   12    0.000012    0.000003
   -7   -7    0    5   12   -0.000007   -0.000008
   -7   -7    0    6   12   -0.000008    0.000020
   -7   -7    0    7   12    0.000010   -0.000000
   -7   -7    0    8   12   -0.000012   -0.000028
   -7   -7    0    9   12   -0.000003    0.000002
   -7   -7    0   10   12    0.000001   -0.000003
   -7   -7    0   11   12    0.000006    0.000007
   -7   -7    0   12   12    0.000003    0.000000
   -7   -7    0   13   12    0.000002   -0.000005
   -7   -7    0   14   12   -0.000029   -0.000004
   -7   -7    0   15   12    0.000001    0.000005
   -7   -7    0   16   12   -0.000001    0.000006
   -7   -7    0   17   12    0.000021   -0.000011
   -7   -7    0   18   12   -0.000010    0.000010
   -7   -7    0    1   13    0.000004   -0.000010
   -7   -7    0    2   13    0.000007   -0.000036
   -7   -7    0    3   13    0.000000    0.000006
   -7   -7    0    4   13   -0.000027    0.000012
   -7   -7    0    5   13   -0.000094   -0.000025
   -7   -7    0    6   13    0.000009   -0.000019
   -7   -7    0    7   13    0.000009   -0.000022
   -7   -7    0    8   13   -0.000002   -0.000023
   -7   -7    0    9   13   -0.000005   -0.000003
   -7   -7    0   10   13   -0.000002   -0.000002
   -7   -7    0   11   13   -0.000034    0.000003
   -7   -7    0   12   13    0.000002    0.000005
   -7   -7    0   13   13   -0.000003   -0.000000
   -7   -7    0   14   13    0.000002   -0.000000
   -7   -7    0   15   13    0.000016    0.000002
   -7   -7    0   16   13   -0.000011    0.000004
   -7   -7    0   17   13   -0.000005   -0.000011
   -7   -7    0   18   13    0.000002    0.000026
   -7   -7    0    1   14   -0.000024    0.000004
   -7   -7    0    2   14   -0.000020    0.000026
   -7   -7    0    3   14    0.000012    0.000001
   -7   -7    0    4   14    0.000018    0.000021
   -7   -7    0    5   14    0.000023    0.000019
   -7   -7    0    6   14    0.000092   -0.000001
   -7   -7    0    7   14   -0.000031   -0.000002
   -7   -7    0    8   14    0.000010   -0.000016
   -7   -7    0    9   14   -0.000000    0.000002
   -7   -7    0   10   14    0.000007    0.000001
   -7   -7    0   11   14   -0.000004    0.000005
   -7   -7    0   12   14   -0.000029    0.000004
   -7   -7    0   13   14    0.000002    0.000000
   -7   -7    0   14   14    0.000000    0.000000
   -7   -7    0   15   14   -0.000014   -0.000006
   -7   -7    0   16   14   -0.000001    0.000005
   -7   -7    0   17   14    0.000004    0.000018
   -7   -7    0   18   14    0.000000    0.000005
   -7   -7    0    1   15   -0.000003    0.000018
   -7   -7    0    2   15    0.000055   -0.000022
   -7   -7    0    3   15   -0.000011   -0.000003
   -7   -7    0    4   15   -0.000008   -0.000020
   -7   -7    0    5   15   -0.000019   -0.000050
   -7   -7    0    6   15   -0.000006    0.000016
   -7   -7    0    7   15   -0.000021    0.000011
   -7   -7    0    8   15   -0.000006    0.000007
   -7   -7    0    9   15   -0.000002   -0.000008
   -7   -7    0   10   15    0.000003   -0.000001
   -7   -7    0   11   15   -0.000004   -0.000015
   -7   -7    0   12   15    0.000001   -0.000005
   -7   -7    0   13   15    0.000016   -0.000002
   -7   -7    0   14   15   -0.000014    0.000006
   -7   -7    0   15   15    0.000009    0.000000
   -7   -7    0   16   15   -0.000004    0.000001
   -7   -7    0   17   15   -0.000039   -0.000020
   -7   -7    0   18   15   -0.000030   -0.000006
   -7   -7    0    1   16    0.000026    0.000049
   -7   -7    0    2   16    0.000054   -0.000012
   -7   -7    0    3   16    0.000005   -0.000009
   -7   -7    0    4   16   -0.000005   -0.000018
   -7   -7    0    5   16    0.000009   -0.000031
   -7   -7    0    6   16   -0.000007    0.000037
   -7   -7    0    7   16    0.000042   -0.000005
   -7   -7    0    8   16    0.000037   -0.000006
   -7   -7    0    9   16    0.000001   -0.000005
   -7   -7    0   10   16    0.000001   -0.000014
   -7   -7    0   11   16   -0.000001   -0.000025
   -7   -7    0   12   16   -0.000001   -0.000006
   -7   -7    0   13   16   -0.000011   -0.000004
   -7   -7    0   14   16   -0.000001   -0.000005
   -7   -7    0   15   16   -0.000004   -0.000001
   -7   -7    0   16   16   -0.000001    0.000000
   -7   -7    0   17   16    0.000046   -0.000022
   -7   -7    0   18   16   -0.000019    0.000001
   -7   -7    0    1   17   -0.000006   -0.000005
   -7   -7    0    2   17   -0.000020   -0.000010
   -7   -7    0    3   17   -0.000215   -0.000020
   -7   -7    0    4   17   -0.000074   -0.000085
   -7   -7    0    5   17    0.000112    0.000016
   -7   -7    0    6   17   -0.000012    0.000010
   -7   -7    0    7   17    0.000022    0.000033
   -7   -7    0    8   17   -0.000048   -0.000014
   -7   -7    0    9   17    0.000087    0.000003
   -7   -7    0   10   17   -0.000021   -0.000017
   -7   -7    0   11   17    0.000007    0.000018
   -7   -7    0   12   17    0.000021    0.000011
   -7   -7    0   13   17   -0.000005    0.000011
   -7   -7    0   14   17    0.000004   -0.000018
   -7   -7    0   15   17   -0.000039    0.000020
   -7   -7    0   16   17    0.000046    0.000022
   -7   -7    0   17   17    0.000003    0.000000
   -7   -7    0   18   17   -0.000003   -0.000001
   -7   -7    0    1   18    0.000039   -0.000018
   -7   -7    0    2   18    0.000043   -0.000014
   -7   -7    0    3   18   -0.000099    0.000053
   -7   -7    0    4   18    0.000131   -0.000004
   -7   -7    0    5   18   -0.000023    0.000011
   -7   -7    0    6   18   -0.000019    0.000028
   -7   -7    0    7   18    0.000016    0.000040
   -7   -7    0    8   18   -0.000003   -0.000014
   -7   -7    0    9   18    0.000013   -0.000008
   -7   -7    0   10   18    0.000019   -0.000007
   -7   -7    0   11   18   -0.000015    0.000004
   -7   -7    0   12   18   -0.000010   -0.000010
   -7   -7    0   13   18    0.000002   -0.000026
   -7   -7    0   14   18    0.000000   -0.000005
   -7   -7    0   15   18   -0.000030    0.000006
   -7   -7    0   16   18   -0.000019   -0.000001
   -7   -7    0   17   18   -0.000003    0.000001
   -7   -7    0   18   18   -0.000001   -0.000000
   -7   -6    0    1    1    0.000020   -0.000004
   -7   -6    0    2    1    0.000078    0.000052
   -7   -6    0    3    1   -0.001093   -0.000189
   -7   -6    0    4    1    0.000024   -0.000117
   -7   -6    0    5    1   -0.000042    0.000058
   -7   -6    0    6    1    0.000007    0.000035
   -7   -6    0    7    1   -0.000085    0.000020
   -7   -6    0    8    1    0.000175    0.000156
   -7   -6    0    9    1    0.000194    0.000046
   -7   -6    0   10    1   -0.000003   -0.000008
   -7   -6    0   11    1    0.000034    0.000042
   -7   -6    0   12    1   -0.000005    0.000012
   -7   -6    0   13    1    0.000099    0.000034
   -7   -6    0   14    1    0.000069    0.000041
   -7   -6    0   15    1    0.000047    0.000037
   -7   -6    0   16    1    0.000040    0.000056
   -7   -6    0   17    1   -0.000020   -0.000012
   -7   -6    0   18    1   -0.000051   -0.000043
   -7   -6    0    1    2    0.000014    0.000017
   -7   -6    0    2    2   -0.000018   -0.000016
   -7   -6    0    3    2    0.000350   -0.000195
   -7   -6    0    4    2    0.000595    0.000091
   -7   -6    0    5    2   -0.000203    0.000047
   -7   -6    0    6    2    0.000077   -0.000022
   -7   -6    0    7    2   -0.000013    0.000073
   -7   -6    0    8    2    0.000102   -0.000018
   -7   -6    0    9    2   -0.000074    0.000068
   -7   -6    0   10    2    0.000144   -0.000004
   -7   -6    0   11    2   -0.000030   -0.000021
   -7   -6    0   12    2    0.000040   -0.000006
   -7   -6    0   13    2    0.000004   -0.000016
   -7   -6    0   14    2   -0.000023    0.000013
   -7   -6    0   15    2   -0.000080   -0.000013
   -7   -6    0   16    2   -0.000033    0.000011
   -7   -6    0   17    2   -0.000041   -0.000031
   -7   -6    0   18    2    0.000049   -0.000010
   -7   -6    0    1    3   -0.000743    0.000132
   -7   -6    0    2    3    0.000289    0.000225
   -7   -6    0    3    3   -0.000001    0.000002
   -7   -6    0    4    3   -0.000064    0.000041
   -7   -6    0    5    3   -0.000176    0.000033
   -7   -6    0    6    3    0.000135    0.000060
   -7   -6    0    7    3    0.000027   -0.000036
   -7   -6    0    8    3    0.000031   -0.000029
   -7   -6    0    9    3   -0.000035   -0.000017
   -7   -6    0   10    3   -0.000007    0.000009
   -7   -6    0   11    3    0.000059    0.000014
   -7   -6    0   12    3    0.000039    0.000029
   -7   -6    0   13    3   -0.000020    0.000003
   -7   -6    0   14    3    0.000014    0.000004
   -7   -6    0   15    3   -0.000017   -0.000001
   -7   -6    0   16    3   -0.000010    0.000001
   -7   -6    0   17    3    0.000191   -0.000009
   -7   -6    0   18    3    0.000056    0.000053
   -7   -6    0    1    4   -0.000026    0.000153
   -7   -6    0    2    4    0.000875   -0.000133
   -7   -6    0    3    4    0.000080    0.000034
   -7   -6    0    4    4   -0.000001    0.000056
   -7   -6    0    5    4    0.000241   -0.000116
   -7   -6    0    6    4    0.000268    0.000014
   -7   -6    0    7    4   -0.000167    0.000016
   -7   -6    0    8    4    0.000093   -0.000029
   -7   -6    0    9    4    0.000021   -0.000001
   -7   -6    0   10    4   -0.000021    0.000007
   -7   -6    0   11    4   -0.000015   -0.000010
   -7   -6    0   12    4    0.000108    0.000005
   -7   -6    0   13    4    0.000002   -0.000006
   -7   -6    0   14    4    0.000007    0.000006
   -7   -6    0   15    4   -0.000046    0.000008
   -7   -6    0   16    4   -0.000024    0.000013
   -7   -6    0   17    4    0.000078   -0.000059
   -7   -6    0   18    4   -0.000106    0.000004
   -7   -6    0    1    5   -0.000055   -0.000042
   -7   -6    0    2    5   -0.000254   -0.000001
   -7   -6    0    3    5    0.000179    0.000008
   -7   -6    0    4    5   -0.000210   -0.000022
   -7   -6    0    5    5   -0.000015   -0.000009
   -7   -6    0    6    5    0.000091    0.000078
   -7   -6    0    7    5   -0.000206    0.000094
   -7   -6    0    8    5    0.000235    0.000086
   -7   -6    0    9    5    0.000021    0.000008
   -7   -6    0   10    5    0.000011   -0.000024
   -7   -6    0   11    5   -0.000112   -0.000003
   -7   -6    0   12    5   -0.000030   -0.000016
   -7   -6    0   13    5    0.000075   -0.000011
   -7   -6    0   14    5    0.000028    0.000041
   -7   -6    0   15    5   -0.000087   -0.000037
   -7   -6    0   16    5   -0.000077   -0.000001
   -7   -6    0   17    5   -0.000090    0.000005
   -7   -6    0   18    5    0.000026    0.000021
   -7   -6    0    1    6   -0.000097    0.000017
   -7   -6    0    2    6    0.000129   -0.000047
   -7   -6    0    3    6   -0.000125    0.000025
   -7   -6    0    4    6   -0.000268    0.000016
   -7   -6    0    5    6    0.000007    0.000127
   -7   -6    0    6    6    0.000001    0.000051
   -7   -6    0    7    6    0.000102   -0.000105
   -7   -6    0    8    6    0.000258   -0.000010
   -7   -6    0    9    6   -0.000023    0.000025
   -7   -6    0   10    6   -0.000015    0.000001
   -7   -6    0   11    6    0.000022    0.000012
   -7   -6    0   12    6   -0.000044    0.000005
   -7   -6    0   13    6    0.000003   -0.000006
   -7   -6    0   14    6   -0.000066   -0.000006
   -7   -6    0   15    6    0.000068   -0.000060
   -7   -6    0   16    6   -0.000018    0.000009
   -7   -6    0   17    6   -0.000019    0.000032
   -7   -6    0   18    6   -0.000031    0.000043
   -7   -6    0    1    7    0.000174   -0.000176
   -7   -6    0    2    7    0.000103   -0.000055
   -7   -6    0    3    7    0.000070    0.000010
   -7   -6    0    4    7    0.000202    0.000066
   -7   -6    0    5    7   -0.000031    0.000069
   -7   -6    0    6    7   -0.000062   -0.000056
   -7   -6    0    7    7    0.000003   -0.000030
   -7   -6    0    8    7   -0.000094   -0.000105
   -7   -6    0    9    7    0.000017    0.000010
   -7   -6    0   10    7   -0.000036   -0.000007
   -7   -6    0   11    7   -0.000022    0.000029
   -7   -6    0   12    7    0.000066    0.000032
   -7   -6    0   13    7    0.000013    0.000026
   -7   -6    0   14    7    0.000014   -0.000020
   -7   -6    0   15    7   -0.000013    0.000024
   -7   -6    0   16    7    0.000075    0.000005
   -7   -6    0   17    7    0.000006   -0.000015
   -7   -6    0   18    7    0.000056   -0.000003
   -7   -6    0    1    8    0.000036    0.000114
   -7   -6    0    2    8   -0.000181   -0.000064
   -7   -6    0    3    8   -0.000091   -0.000009
   -7   -6    0    4    8   -0.000012   -0.000010
   -7   -6    0    5    8   -0.000176    0.000116
   -7   -6    0    6    8   -0.000062   -0.000023
   -7   -6    0    7    8    0.000035    0.000047
   -7   -6    0    8    8   -0.000018    0.000029
   -7   -6    0    9    8   -0.000027   -0.000001
   -7   -6    0   10    8    0.000000    0.000001
   -7   -6    0   11    8   -0.000015    0.000029
   -7   -6    0   12    8   -0.000001   -0.000018
   -7   -6    0   13    8    0.000001    0.000001
   -7   -6    0   14    8    0.000003   -0.000011
   -7   -6    0   15    8    0.000024    0.000005
   -7   -6    0   16    8   -0.000017   -0.000029
   -7   -6    0   17    8   -0.000062    0.000009
   -7   -6    0   18    8   -0.000007   -0.000015
   -7   -6    0    1    9    0.000191   -0.000014
   -7   -6    0    2    9   -0.000118   -0.000062
   -7   -6    0    3    9    0.000035    0.000018
   -7   -6    0    4    9   -0.000032    0.000006
   -7   -6    0    5    9   -0.000038   -0.000040
   -7   -6    0    6    9    0.000049   -0.000006
   -7   -6    0    7    9   -0.000031    0.000014
   -7   -6    0    8    9    0.000014   -0.000036
   -7   -6    0    9    9    0.000002   -0.000006
   -7   -6    0   10    9   -0.000004    0.000001
   -7   -6    0   11    9   -0.000048   -0.000004
   -7   -6    0   12    9   -0.000034   -0.000023
   -7   -6    0   13    9   -0.000008   -0.000005
   -7   -6    0   14    9    0.000005    0.000002
   -7   -6    0   15    9   -0.000006    0.000006
   -7   -6    0   16    9   -0.000004    0.000012
   -7   -6    0   17    9   -0.000055    0.000014
   -7   -6    0   18    9   -0.000012    0.000010
   -7   -6    0    1   10   -0.000004    0.000015
   -7   -6    0    2   10    0.000214   -0.000015
   -7   -6    0    3   10    0.000010    0.000008
   -7   -6    0    4   10    0.000019    0.000012
   -7   -6    0    5   10   -0.000008   -0.000003
   -7   -6    0    6   10    0.000011   -0.000001
   -7   -6    0    7   10   -0.000007    0.000006
   -7   -6    0    8   10   -0.000013    0.000003
   -7   -6    0    9   10   -0.000003   -0.000001
   -7   -6    0   10   10   -0.000002    0.000001
   -7   -6    0   11   10   -0.000003    0.000001
   -7   -6    0   12   10    0.000035    0.000005
   -7   -6    0   13   10    0.000010   -0.000001
   -7   -6    0   14   10   -0.000001    0.000003
   -7   -6    0   15   10    0.000004    0.000000
   -7   -6    0   16   10    0.000014   -0.000004
   -7   -6    0   17   10    0.000016   -0.000019
   -7   -6    0   18   10   -0.000014   -0.000001
   -7   -6    0    1   11    0.000006   -0.000034
   -7   -6    0    2   11   -0.000070    0.000006
   -7   -6    0    3   11   -0.000046    0.000012
   -7   -6    0    4   11    0.000014    0.000009
   -7   -6    0    5   11    0.000120   -0.000013
   -7   -6    0    6   11   -0.000015    0.000003
   -7   -6    0    7   11   -0.000106    0.000028
   -7   -6    0    8   11    0.000076    0.000040
   -7   -6    0    9   11    0.000039    0.000005
   -7   -6    0   10   11    0.000005   -0.000007
   -7   -6    0   11   11   -0.000002   -0.000004
   -7   -6    0   12   11   -0.000002    0.000001
   -7   -6    0   13   11    0.000050   -0.000001
   -7   -6    0   14   11    0.000012    0.000012
   -7   -6    0   15   11   -0.000045   -0.000005
   -7   -6    0   16   11   -0.000012    0.000012
   -7   -6    0   17   11    0.000017    0.000009
   -7   -6    0   18   11    0.000032   -0.000008
   -7   -6    0    1   12    0.000002   -0.000018
   -7   -6    0    2   12    0.000007    0.000016
   -7   -6    0    3   12   -0.000041    0.000021
   -7   -6    0    4   12   -0.000104    0.000022
   -7   -6    0    5   12    0.000026   -0.000041
   -7   -6    0    6   12    0.000052    0.000031
   -7   -6    0    7   12   -0.000003   -0.000003
   -7   -6    0    8   12    0.000042   -0.000022
   -7   -6    0    9   12    0.000032   -0.000021
   -7   -6    0   10   12   -0.000031   -0.000002
   -7   -6    0   11   12    0.000005   -0.000002
   -7   -6    0   12   12   -0.000000    0.000002
   -7   -6    0   13   12   -0.000019    0.000006
   -7   -6    0   14   12    0.000035    0.000000
   -7   -6    0   15   12   -0.000012    0.000018
   -7   -6    0   16   12    0.000005    0.000002
   -7   -6    0   17   12    0.000017    0.000001
   -7   -6    0   18   12    0.000004    0.000012
   -7   -6    0    1   13   -0.000040    0.000033
   -7   -6    0    2   13   -0.000036    0.000023
   -7   -6    0    3   13   -0.000019   -0.000015
   -7   -6    0    4   13   -0.000003   -0.000011
   -7   -6    0    5   13    0.000088   -0.000028
   -7   -6    0    6   13    0.000022    0.000015
   -7   -6    0    7   13    0.000004    0.000042
   -7   -6    0    8   13    0.000027    0.000026
   -7   -6    0    9   13   -0.000003   -0.000009
   -7   -6    0   10   13    0.000014    0.000000
   -7   -6    0   11   13    0.000044   -0.000005
   -7   -6    0   12   13   -0.000016   -0.000015
   -7   -6    0   13   13    0.000000   -0.000003
   -7   -6    0   14   13   -0.000002    0.000003
   -7   -6    0   15   13   -0.000007    0.000007
   -7   -6    0   16   13   -0.000016   -0.000004
   -7   -6    0   17   13   -0.000005    0.000001
   -7   -6    0   18   13   -0.000016   -0.000017
   -7   -6    0    1   14   -0.000025    0.000048
   -7   -6    0    2   14    0.000047   -0.000022
   -7   -6    0    3   14   -0.000002   -0.000014
   -7   -6    0    4   14   -0.000001    0.000001
   -7   -6    0    5   14    0.000024   -0.000014
   -7   -6    0    6   14   -0.000057   -0.000014
   -7   -6    0    7   14   -0.000016    0.000007
   -7   -6    0    8   14   -0.000006    0.000005
   -7   -6    0    9   14    0.000000    0.000001
   -7   -6    0   10   14   -0.000003   -0.000001
   -7   -6    0   11   14    0.000010    0.000003
   -7   -6    0   12   14    0.000027    0.000001
   -7   -6    0   13   14    0.000001    0.000001
   -7   -6    0   14   14   -0.000001    0.000003
   -7   -6    0   15   14    0.000002    0.000008
   -7   -6    0   16   14   -0.000005   -0.000000
   -7   -6    0   17   14    0.000006   -0.000025
   -7   -6    0   18   14   -0.000004   -0.000003
   -7   -6    0    1   15   -0.000006   -0.000038
   -7   -6    0    2   15   -0.000018    0.000006
   -7   -6    0    3   15    0.000016   -0.000002
   -7   -6    0    4   15    0.000039    0.000006
   -7   -6    0    5   15    0.000092    0.000002
   -7   -6    0    6   15   -0.000097   -0.000058
   -7   -6    0    7   15    0.000044    0.000019
   -7   -6    0    8   15   -0.000067   -0.000007
   -7   -6    0    9   15    0.000005   -0.000003
   -7   -6    0   10   15   -0.000003    0.000002
   -7   -6    0   11   15    0.000046    0.000002
   -7   -6    0   12   15    0.000011    0.000010
   -7   -6    0   13   15   -0.000007    0.000003
   -7   -6    0   14   15   -0.000004   -0.000005
   -7   -6    0   15   15    0.000001    0.000007
   -7   -6    0   16   15    0.000026   -0.000003
   -7   -6    0   17   15    0.000059   -0.000007
   -7   -6    0   18   15    0.000026   -0.000017
   -7   -6    0    1   16   -0.000027   -0.000031
   -7   -6    0    2   16   -0.000175    0.000028
   -7   -6    0    3   16    0.000017    0.000004
   -7   -6    0    4   16    0.000011    0.000010
   -7   -6    0    5   16    0.000101   -0.000007
   -7   -6    0    6   16    0.000021    0.000012
   -7   -6    0    7   16   -0.000059   -0.000011
   -7   -6    0    8   16    0.000022    0.000003
   -7   -6    0    9   16    0.000011    0.000008
   -7   -6    0   10   16   -0.000017    0.000002
   -7   -6    0   11   16    0.000013   -0.000005
   -7   -6    0   12   16   -0.000009    0.000009
   -7   -6    0   13   16   -0.000015   -0.000001
   -7   -6    0   14   16   -0.000001    0.000000
   -7   -6    0   15   16   -0.000032    0.000002
   -7   -6    0   16   16   -0.000006   -0.000001
   -7   -6    0   17   16    0.000015    0.000026
   -7   -6    0   18   16    0.000033   -0.000005
   -7   -6    0    1   17    0.000010   -0.000011
   -7   -6    0    2   17   -0.000004    0.000027
   -7   -6    0    3   17    0.000202    0.000006
   -7   -6    0    4   17    0.000082    0.000080
   -7   -6    0    5   17   -0.000078   -0.000007
   -7   -6    0    6   17   -0.000011    0.000023
   -7   -6    0    7   17   -0.000039    0.000014
   -7   -6    0    8   17   -0.000102    0.000010
   -7   -6    0    9   17   -0.000051   -0.000007
   -7   -6    0   10   17    0.000013    0.000017
   -7   -6    0   11   17    0.000014    0.000002
   -7   -6    0   12   17    0.000014    0.000010
   -7   -6    0   13   17    0.000011    0.000005
   -7   -6    0   14   17   -0.000015   -0.000006
   -7   -6    0   15   17    0.000038   -0.000001
   -7   -6    0   16   17    0.000005    0.000005
   -7   -6    0   17   17   -0.000001    0.000005
   -7   -6    0   18   17    0.000013    0.000006
   -7   -6    0    1   18    0.000023   -0.000032
   -7   -6    0    2   18   -0.000083    0.000026
   -7   -6    0    3   18    0.000057   -0.000027
   -7   -6    0    4   18   -0.000107    0.000008
   -7   -6    0    5   18    0.000025    0.000006
   -7   -6    0    6   18   -0.000031    0.000011
   -7   -6    0    7   18   -0.000015   -0.000034
   -7   -6    0    8   18    0.000059   -0.000004
   -7   -6    0    9   18   -0.000006    0.000021
   -7   -6    0   10   18   -0.000017    0.000005
   -7   -6    0   11   18    0.000030   -0.000018
   -7   -6    0   12   18    0.000006    0.000016
   -7   -6    0   13   18    0.000013    0.000011
   -7   -6    0   14   18    0.000007   -0.000001
   -7   -6    0   15   18    0.000017   -0.000029
   -7   -6    0   16   18    0.000033    0.000002
   -7   -6    0   17   18   -0.000012   -0.000006
   -7   -6    0   18   18   -0.000000    0.000003
   -7   -5    0    1    1   -0.000012    0.000011
   -7   -5    0    2    1    0.000221    0.000131
   -7   -5    0    3    1    0.001400    0.000253
   -7   -5    0    4    1   -0.000063    0.000074
   -7   -5    0    5    1    0.000096   -0.000018
   -7   -5    0    6    1    0.000110    0.000002
   -7   -5    0    7    1    0.000307    0.000024
   -7   -5    0    8    1   -0.000212   -0.000144
   -7   -5    0    9    1   -0.000215   -0.000070
   -7   -5    0   10    1   -0.000061   -0.000020
   -7   -5    0   11    1   -0.000028   -0.000042
   -7   -5    0   12    1    0.000004   -0.000036
   -7   -5    0   13    1   -0.000131   -0.000048
   -7   -5    0   14    1   -0.000074   -0.000033
   -7   -5    0   15    1   -0.000061   -0.000026
   -7   -5    0   16    1   -0.000059   -0.000049
   -7   -5    0   17    1    0.000061    0.000012
   -7   -5    0   18    1    0.000035    0.000034
   -7   -5    0    1    2    0.000155   -0.000176
   -7   -5    0    2    2    0.000003    0.000013
   -7   -5    0    3    2   -0.000304    0.000180
   -7   -5    0    4    2   -0.000893   -0.000125
   -7   -5    0    5    2    0.000223   -0.000071
   -7   -5    0    6    2   -0.000139    0.000010
   -7   -5    0    7    2   -0.000010   -0.000036
   -7   -5    0    8    2   -0.000211    0.000078
   -7   -5    0    9    2    0.000106   -0.000062
   -7   -5    0   10    2   -0.000198   -0.000027
   -7   -5    0   11    2    0.000065    0.000001
   -7   -5    0   12    2   -0.000006   -0.000008
   -7   -5    0   13    2   -0.000033    0.000028
   -7   -5    0   14    2    0.000049    0.000001
   -7   -5    0   15    2    0.000040    0.000004
   -7   -5    0   16    2    0.000136   -0.000032
   -7   -5    0   17    2    0.000015    0.000019
   -7   -5    0   18    2   -0.000079   -0.000021
   -7   -5    0    1    3    0.001062   -0.000158
   -7   -5    0    2    3   -0.000260   -0.000190
   -7   -5    0    3    3   -0.000008    0.000022
   -7   -5    0    4    3   -0.000091    0.000011
   -7   -5    0    5    3    0.000127   -0.000001
   -7   -5    0    6    3   -0.000098    0.000062
   -7   -5    0    7    3   -0.000047    0.000016
   -7   -5    0    8    3    0.000292    0.000084
   -7   -5    0    9    3    0.000041   -0.000005
   -7   -5    0   10    3    0.000000    0.000004
   -7   -5    0   11    3   -0.000160    0.000008
   -7   -5    0   12    3   -0.000117   -0.000077
   -7   -5    0   13    3    0.000010   -0.000001
   -7   -5    0   14    3    0.000008    0.000007
   -7   -5    0   15    3   -0.000000   -0.000024
   -7   -5    0   16    3   -0.000008   -0.000000
   -7   -5    0   17    3   -0.000184    0.000019
   -7   -5    0   18    3   -0.000078   -0.000030
   -7   -5    0    1    4   -0.000027   -0.000124
   -7   -5    0    2    4   -0.001127    0.000172
   -7   -5    0    3    4    0.000059    0.000045
   -7   -5    0    4    4   -0.000032    0.000043
   -7   -5    0    5    4   -0.000050    0.000132
   -7   -5    0    6    4    0.000076   -0.000064
   -7   -5    0    7    4   -0.000197    0.000055
   -7   -5    0    8    4   -0.000107    0.000007
   -7   -5    0    9    4   -0.000004    0.000006
   -7   -5    0   10    4    0.000020   -0.000002
   -7   -5    0   11    4    0.000033    0.000010
   -7   -5    0   12    4   -0.000201    0.000041
   -7   -5    0   13    4    0.000026   -0.000004
   -7   -5    0   14    4   -0.000016    0.000017
   -7   -5    0   15    4   -0.000100   -0.000008
   -7   -5    0   16    4    0.000023    0.000007
   -7   -5    0   17    4   -0.000076    0.000019
   -7   -5    0   18    4    0.000120   -0.000028
   -7   -5    0    1    5    0.000034    0.000012
   -7   -5    0    2    5    0.000270    0.000017
   -7   -5    0    3    5   -0.000114   -0.000010
   -7   -5    0    4    5    0.000010   -0.000030
   -7   -5    0    5    5   -0.000018    0.000029
   -7   -5    0    6    5   -0.000299   -0.000104
   -7   -5    0    7    5    0.000034    0.000033
   -7   -5    0    8    5   -0.000329   -0.000153
   -7   -5    0    9    5   -0.000053   -0.000037
   -7   -5    0   10    5    0.000005   -0.000001
   -7   -5    0   11    5    0.000004   -0.000009
   -7   -5    0   12    5    0.000015   -0.000017
   -7   -5    0   13    5    0.000036   -0.000031
   -7   -5    0   14    5   -0.000091   -0.000031
   -7   -5    0   15    5    0.000121    0.000054
   -7   -5    0   16    5    0.000000   -0.000003
   -7   -5    0   17    5    0.000014    0.000004
   -7   -5    0   18    5    0.000075   -0.000009
   -7   -5    0    1    6    0.000029    0.000020
   -7   -5    0    2    6   -0.000069    0.000011
   -7   -5    0    3    6    0.000055   -0.000018
   -7   -5    0    4    6   -0.000070    0.000024
   -7   -5    0    5    6    0.000192   -0.000185
   -7   -5    0    6    6   -0.000046    0.000017
   -7   -5    0    7    6    0.000080   -0.000034
   -7   -5    0    8    6   -0.000250   -0.000009
   -7   -5    0    9    6    0.000006   -0.000042
   -7   -5    0   10    6   -0.000061    0.000003
   -7   -5    0   11    6   -0.000045    0.000012
   -7   -5    0   12    6    0.000010   -0.000010
   -7   -5    0   13    6   -0.000099   -0.000005
   -7   -5    0   14    6    0.000013   -0.000003
   -7   -5    0   15    6   -0.000093    0.000075
   -7   -5    0   16    6   -0.000050   -0.000009
   -7   -5    0   17    6   -0.000055   -0.000038
   -7   -5    0   18    6   -0.000097   -0.000029
   -7   -5    0    1    7   -0.000341    0.000196
   -7   -5    0    2    7   -0.000066    0.000056
   -7   -5    0    3    7   -0.000043   -0.000045
   -7   -5    0    4    7   -0.000066    0.000008
   -7   -5    0    5    7   -0.000365   -0.000158
   -7   -5    0    6    7    0.000422    0.000103
   -7   -5    0    7    7   -0.000005    0.000007
   -7   -5    0    8    7   -0.000012    0.000034
   -7   -5    0    9    7   -0.000074    0.000022
   -7   -5    0   10    7   -0.000036   -0.000004
   -7   -5    0   11    7   -0.000025   -0.000035
   -7   -5    0   12    7   -0.000104   -0.000010
   -7   -5    0   13    7   -0.000007    0.000014
   -7   -5    0   14    7    0.000020    0.000039
   -7   -5    0   15    7    0.000078    0.000015
   -7   -5    0   16    7    0.000021    0.000008
   -7   -5    0   17    7    0.000180   -0.000006
   -7   -5    0   18    7   -0.000053    0.000021
   -7   -5    0    1    8    0.000101   -0.000187
   -7   -5    0    2    8    0.000241    0.000085
   -7   -5    0    3    8    0.000004   -0.000013
   -7   -5    0    4    8   -0.000076   -0.000021
   -7   -5    0    5    8   -0.000255    0.000086
   -7   -5    0    6    8   -0.000288    0.000052
   -7   -5    0    7    8    0.000156   -0.000078
   -7   -5    0    8    8    0.000024   -0.000006
   -7   -5    0    9    8    0.000001    0.000012
   -7   -5    0   10    8    0.000012   -0.000012
   -7   -5    0   11    8   -0.000075    0.000018
   -7   -5    0   12    8   -0.000023   -0.000003
   -7   -5    0   13    8    0.000026   -0.000002
   -7   -5    0   14    8    0.000009    0.000010
   -7   -5    0   15    8    0.000062   -0.000042
   -7   -5    0   16    8   -0.000013    0.000000
   -7   -5    0   17    8   -0.000079    0.000037
   -7   -5    0   18    8    0.000053    0.000007
   -7   -5    0    1    9   -0.000230    0.000007
   -7   -5    0    2    9    0.000131    0.000057
   -7   -5    0    3    9   -0.000048   -0.000029
   -7   -5    0    4    9    0.000016   -0.000022
   -7   -5    0    5    9    0.000062   -0.000003
   -7   -5    0    6    9   -0.000014    0.000008
   -7   -5    0    7    9   -0.000012    0.000047
   -7   -5    0    8    9    0.000038    0.000015
   -7   -5    0    9    9   -0.000001   -0.000003
   -7   -5    0   10    9    0.000029    0.000000
   -7   -5    0   11    9    0.000073    0.000002
   -7   -5    0   12    9    0.000041    0.000022
   -7   -5    0   13    9    0.000011   -0.000008
   -7   -5    0   14    9   -0.000009    0.000002
   -7   -5    0   15    9    0.000004    0.000010
   -7   -5    0   16    9   -0.000011    0.000009
   -7   -5    0   17    9    0.000048    0.000009
   -7   -5    0   18    9    0.000006   -0.000004
   -7   -5    0    1   10   -0.000004   -0.000011
   -7   -5    0    2   10   -0.000190   -0.000008
   -7   -5    0    3   10    0.000006    0.000004
   -7   -5    0    4   10   -0.000030   -0.000007
   -7   -5    0    5   10   -0.000004   -0.000019
   -7   -5    0    6   10    0.000073   -0.000000
   -7   -5    0    7   10    0.000030   -0.000016
   -7   -5    0    8   10    0.000021    0.000018
   -7   -5    0    9   10   -0.000024    0.000006
   -7   -5    0   10   10   -0.000000   -0.000004
   -7   -5    0   11   10    0.000029   -0.000014
   -7   -5    0   12   10   -0.000079    0.000007
   -7   -5    0   13   10   -0.000007    0.000002
   -7   -5    0   14   10    0.000001    0.000004
   -7   -5    0   15   10    0.000008   -0.000007
   -7   -5    0   16   10   -0.000004    0.000004
   -7   -5    0   17   10   -0.000024    0.000008
   -7   -5    0   18   10    0.000050    0.000002
   -7   -5    0    1   11   -0.000025    0.000029
   -7   -5    0    2   11    0.000105    0.000010
   -7   -5    0    3   11    0.000160    0.000030
   -7   -5    0    4   11   -0.000052   -0.000035
   -7   -5    0    5   11   -0.000015    0.000029
   -7   -5    0    6   11    0.000048   -0.000001
   -7   -5    0    7   11    0.000009   -0.000015
   -7   -5    0    8   11   -0.000140   -0.000077
   -7   -5    0    9   11   -0.000065   -0.000007
   -7   -5    0   10   11   -0.000030   -0.000008
   -7   -5    0   11   11   -0.000006   -0.000009
   -7   -5    0   12   11    0.000018    0.000001
   -7   -5    0   13   11   -0.000010   -0.000008
   -7   -5    0   14   11   -0.000023   -0.000007
   -7   -5    0   15   11    0.000029    0.000005
   -7   -5    0   16   11    0.000002   -0.000020
   -7   -5    0   17   11    0.000012   -0.000025
   -7   -5    0   18   11   -0.000012   -0.000004
   -7   -5    0    1   12   -0.000004   -0.000004
   -7   -5    0    2   12   -0.000074   -0.000033
   -7   -5    0    3   12    0.000112   -0.000045
   -7   -5    0    4   12    0.000175    0.000015
   -7   -5    0    5   12    0.000005    0.000012
   -7   -5    0    6   12   -0.000002    0.000021
   -7   -5    0    7   12   -0.000079    0.000053
   -7   -5    0    8   12    0.000123    0.000042
   -7   -5    0    9   12   -0.000040    0.000028
   -7   -5    0   10   12    0.000077    0.000003
   -7   -5    0   11   12   -0.000023    0.000003
   -7   -5    0   12   12   -0.000002   -0.000005
   -7   -5    0   13   12    0.000024   -0.000015
   -7   -5    0   14   12   -0.000016    0.000008
   -7   -5    0   15   12   -0.000029   -0.000011
   -7   -5    0   16   12   -0.000028   -0.000003
   -7   -5    0   17   12    0.000024   -0.000002
   -7   -5    0   18   12   -0.000002   -0.000014
   -7   -5    0    1   13    0.000101   -0.000043
   -7   -5    0    2   13    0.000069   -0.000023
   -7   -5    0    3   13    0.000021   -0.000002
   -7   -5    0    4   13    0.000013   -0.000004
   -7   -5    0    5   13    0.000047    0.000033
   -7   -5    0    6   13   -0.000109   -0.000037
   -7   -5    0    7   13    0.000008    0.000007
   -7   -5    0    8   13   -0.000024   -0.000022
   -7   -5    0    9   13    0.000008   -0.000003
   -7   -5    0   10   13    0.000002   -0.000005
   -7   -5    0   11   13   -0.000011    0.000012
   -7   -5    0   12   13    0.000023   -0.000005
   -7   -5    0   13   13    0.000003   -0.000003
   -7   -5    0   14   13   -0.000005   -0.000005
   -7   -5    0   15   13   -0.000004    0.000002
   -7   -5    0   16   13   -0.000000   -0.000001
   -7   -5    0   17   13   -0.000013   -0.000015
   -7   -5    0   18   13    0.000013   -0.000001
   -7   -5    0    1   14    0.000052   -0.000059
   -7   -5    0    2   14   -0.000077    0.000023
   -7   -5    0    3   14    0.000004    0.000012
   -7   -5    0    4   14   -0.000011    0.000001
   -7   -5    0    5   14   -0.000108    0.000039
   -7   -5    0    6   14    0.000014    0.000000
   -7   -5    0    7   14    0.000018   -0.000001
   -7   -5    0    8   14   -0.000024    0.000003
   -7   -5    0    9   14   -0.000006    0.000002
   -7   -5    0   10   14    0.000004    0.000005
   -7   -5    0   11   14   -0.000025    0.000006
   -7   -5    0   12   14   -0.000019   -0.000004
   -7   -5    0   13   14    0.000005    0.000000
   -7   -5    0   14   14   -0.000000   -0.000000
   -7   -5    0   15   14    0.000008   -0.000012
   -7   -5    0   16   14    0.000002   -0.000009
   -7   -5    0   17   14   -0.000013    0.000039
   -7   -5    0   18   14    0.000009    0.000004
   -7   -5    0    1   15    0.000006    0.000077
   -7   -5    0    2   15    0.000046   -0.000008
   -7   -5    0    3   15    0.000011    0.000013
   -7   -5    0    4   15    0.000108    0.000042
   -7   -5    0    5   15   -0.000104   -0.000028
   -7   -5    0    6   15    0.000115    0.000006
   -7   -5    0    7   15    0.000003   -0.000020
   -7   -5    0    8   15   -0.000073   -0.000036
   -7   -5    0    9   15   -0.000004    0.000010
   -7   -5    0   10   15   -0.000011   -0.000004
   -7   -5    0   11   15   -0.000037   -0.000008
   -7   -5    0   12   15    0.000023    0.000010
   -7   -5    0   13   15   -0.000005    0.000005
   -7   -5    0   14   15    0.000005   -0.000005
   -7   -5    0   15   15   -0.000007    0.000006
   -7   -5    0   16   15    0.000015    0.000009
   -7   -5    0   17   15   -0.000016   -0.000022
   -7   -5    0   18   15   -0.000009    0.000014
   -7   -5    0    1   16   -0.000016   -0.000004
   -7   -5    0    2   16    0.000171   -0.000048
   -7   -5    0    3   16    0.000016    0.000025
   -7   -5    0    4   16   -0.000024   -0.000020
   -7   -5    0    5   16   -0.000030    0.000012
   -7   -5    0    6   16    0.000052    0.000010
   -7   -5    0    7   16   -0.000063    0.000011
   -7   -5    0    8   16   -0.000032    0.000025
   -7   -5    0    9   16    0.000006   -0.000002
   -7   -5    0   10   16    0.000002    0.000008
   -7   -5    0   11   16   -0.000009    0.000015
   -7   -5    0   12   16    0.000030   -0.000006
   -7   -5    0   13   16   -0.000002   -0.000002
   -7   -5    0   14   16   -0.000006    0.000002
   -7   -5    0   15   16   -0.000013   -0.000008
   -7   -5    0   16   16    0.000001   -0.000014
   -7   -5    0   17   16    0.000042   -0.000022
   -7   -5    0   18   16   -0.000090    0.000009
   -7   -5    0    1   17   -0.000020   -0.000004
   -7   -5    0    2   17   -0.000099    0.000017
   -7   -5    0    3   17   -0.000194   -0.000016
   -7   -5    0    4   17   -0.000062   -0.000108
   -7   -5    0    5   17    0.000008    0.000047
   -7   -5    0    6   17   -0.000052   -0.000068
   -7   -5    0    7   17    0.000037    0.000035
   -7   -5    0    8   17   -0.000070   -0.000026
   -7   -5    0    9   17    0.000033   -0.000002
   -7   -5    0   10   17   -0.000021   -0.000008
   -7   -5    0   11   17    0.000021    0.000002
   -7   -5    0   12   17    0.000013    0.000003
   -7   -5    0   13   17    0.000001    0.000007
   -7   -5    0   14   17    0.000020    0.000020
   -7   -5    0   15   17    0.000030    0.000031
   -7   -5    0   16   17    0.000044    0.000004
   -7   -5    0   17   17    0.000001    0.000006
   -7   -5    0   18   17   -0.000010    0.000005
   -7   -5    0    1   18   -0.000041    0.000047
   -7   -5    0    2   18    0.000032   -0.000026
   -7   -5    0    3   18   -0.000087    0.000042
   -7   -5    0    4   18    0.000110    0.000006
   -7   -5    0    5   18    0.000082   -0.000076
   -7   -5    0    6   18   -0.000122   -0.000059
   -7   -5    0    7   18    0.000052   -0.000022
   -7   -5    0    8   18   -0.000042   -0.000029
   -7   -5    0    9   18    0.000004   -0.000032
   -7   -5    0   10   18    0.000053   -0.000005
   -7   -5    0   11   18   -0.000018    0.000014
   -7   -5    0   12   18   -0.000009   -0.000011
   -7   -5    0   13   18   -0.000009   -0.000004
   -7   -5    0   14   18   -0.000013    0.000000
   -7   -5    0   15   18    0.000000    0.000037
   -7   -5    0   16   18   -0.000099    0.000006
   -7   -5    0   17   18   -0.000003   -0.000006
   -7   -5    0   18   18   -0.000000    0.000001
   -7   -4    0    1    1    0.000009   -0.000023
   -7   -4    0    2    1   -0.000582   -0.000414
   -7   -4    0    3    1   -0.001458   -0.000232
   -7   -4    0    4    1    0.000104    0.000008
   -7   -4    0    5    1   -0.000084    0.000027
   -7   -4    0    6    1    0.000238    0.000264
   -7   -4    0    7    1   -0.000386   -0.000073
   -7   -4    0    8    1   -0.000017   -0.000030
   -7   -4    0    9    1    0.000222    0.000051
   -7   -4    0   10    1    0.000077    0.000020
   -7   -4    0   11    1    0.000038    0.000045
   -7   -4    0   12    1   -0.000020    0.000010
   -7   -4    0   13    1    0.000109    0.000045
   -7   -4    0   14    1    0.000057    0.000039
   -7   -4    0   15    1    0.000001    0.000005
   -7   -4    0   16    1    0.000086    0.000098
   -7   -4    0   17    1   -0.000100   -0.000018
   -7   -4    0   18    1   -0.000050   -0.000053
   -7   -4    0    1    2   -0.000051    0.000088
   -7   -4    0    2    2    0.000002    0.000007
   -7   -4    0    3    2    0.000242   -0.000023
   -7   -4    0    4    2    0.001166    0.000163
   -7   -4    0    5    2   -0.000278    0.000138
   -7   -4    0    6    2    0.000072   -0.000017
   -7   -4    0    7    2   -0.000110   -0.000016
   -7   -4    0    8    2    0.000083   -0.000088
   -7   -4    0    9    2   -0.000099    0.000052
   -7   -4    0   10    2    0.000171    0.000033
   -7   -4    0   11    2   -0.000103   -0.000004
   -7   -4    0   12    2    0.000076    0.000014
   -7   -4    0   13    2    0.000080   -0.000038
   -7   -4    0   14    2   -0.000074   -0.000017
   -7   -4    0   15    2   -0.000045   -0.000020
   -7   -4    0   16    2   -0.000135    0.000005
   -7   -4    0   17    2   -0.000100    0.000024
   -7   -4    0   18    2    0.000033    0.000029
   -7   -4    0    1    3   -0.001363    0.000236
   -7   -4    0    2    3    0.000154    0.000140
   -7   -4    0    3    3   -0.000001    0.000071
   -7   -4    0    4    3   -0.000085    0.000043
   -7   -4    0    5    3    0.000347   -0.000089
   -7   -4    0    6    3   -0.000185   -0.000314
   -7   -4    0    7    3    0.000081   -0.000009
   -7   -4    0    8    3   -0.000191    0.000038
   -7   -4    0    9    3   -0.000033   -0.000030
   -7   -4    0   10    3   -0.000012    0.000009
   -7   -4    0   11    3    0.000211   -0.000011
   -7   -4    0   12    3    0.000163    0.000104
   -7   -4    0   13    3   -0.000019   -0.000013
   -7   -4    0   14    3   -0.000033   -0.000014
   -7   -4    0   15    3   -0.000031    0.000042
   -7   -4    0   16    3   -0.000099   -0.000021
   -7   -4    0   17    3   -0.000029   -0.000035
   -7   -4    0   18    3    0.000091   -0.000003
   -7   -4    0    1    4    0.000049    0.000114
   -7   -4    0    2    4    0.001405   -0.000152
   -7   -4    0    3    4   -0.000054    0.000048
   -7   -4    0    4    4   -0.000045    0.000013
   -7   -4    0    5    4    0.000132   -0.000032
   -7   -4    0    6    4   -0.000320   -0.000052
   -7   -4    0    7    4    0.000088   -0.000090
   -7   -4    0    8    4    0.000159    0.000131
   -7   -4    0    9    4    0.000077   -0.000030
   -7   -4    0   10    4   -0.000060    0.000011
   -7   -4    0   11    4   -0.000052    0.000017
   -7   -4    0   12    4    0.000291   -0.000022
   -7   -4    0   13    4    0.000007    0.000027
   -7   -4    0   14    4    0.000029    0.000008
   -7   -4    0   15    4    0.000039   -0.000010
   -7   -4    0   16    4   -0.000004   -0.000027
   -7   -4    0   17    4   -0.000024    0.000008
   -7   -4    0   18    4   -0.000116    0.000019
   -7   -4    0    1    5   -0.000105    0.000000
   -7   -4    0    2    5   -0.000285   -0.000114
   -7   -4    0    3    5   -0.000469    0.000085
   -7   -4    0    4    5   -0.000076   -0.000226
   -7   -4    0    5    5    0.000068   -0.000031
   -7   -4    0    6    5    0.000260    0.000352
   -7   -4    0    7    5    0.000377   -0.000061
   -7   -4    0    8    5    0.000633    0.000487
   -7   -4    0    9    5    0.000107    0.000079
   -7   -4    0   10    5   -0.000003   -0.000033
   -7   -4    0   11    5    0.000140   -0.000073
   -7   -4    0   12    5   -0.000071   -0.000023
   -7   -4    0   13    5   -0.000051   -0.000013
   -7   -4    0   14    5    0.000098    0.000039
   -7   -4    0   15    5    0.000006   -0.000109
   -7   -4    0   16    5   -0.000026    0.000040
   -7   -4    0   17    5    0.000043   -0.000070
   -7   -4    0   18    5   -0.000130   -0.000074
   -7   -4    0    1    6   -0.000166    0.000011
   -7   -4    0    2    6    0.000247   -0.000065
   -7   -4    0    3    6    0.000189    0.000029
   -7   -4    0    4    6    0.000475    0.000006
   -7   -4    0    5    6   -0.000515    0.000106
   -7   -4    0    6    6   -0.000083    0.000087
   -7   -4    0    7    6   -0.000285    0.000176
   -7   -4    0    8    6   -0.000401   -0.000212
   -7   -4    0    9    6   -0.000108    0.000105
   -7   -4    0   10    6    0.000123    0.000004
   -7   -4    0   11    6   -0.000008    0.000007
   -7   -4    0   12    6    0.000181    0.000067
   -7   -4    0   13    6    0.000150   -0.000057
   -7   -4    0   14    6   -0.000080   -0.000016
   -7   -4    0   15    6    0.000148   -0.000114
   -7   -4    0   16    6    0.000093    0.000014
   -7   -4    0   17    6   -0.000074    0.000175
   -7   -4    0   18    6    0.000172   -0.000003
   -7   -4    0    1    7    0.000418   -0.000153
   -7   -4    0    2    7    0.000043    0.000004
   -7   -4    0    3    7    0.000043   -0.000036
   -7   -4    0    4    7    0.000129   -0.000041
   -7   -4    0    5    7    0.000646    0.000396
   -7   -4    0    6    7   -0.000781    0.000017
   -7   -4    0    7    7   -0.000093    0.000020
   -7   -4    0    8    7    0.000643    0.000382
   -7   -4    0    9    7    0.000220   -0.000001
   -7   -4    0   10    7    0.000106    0.000015
   -7   -4    0   11    7    0.000089    0.000105
   -7   -4    0   12    7    0.000120   -0.000033
   -7   -4    0   13    7    0.000003    0.000047
   -7   -4    0   14    7    0.000041    0.000012
   -7   -4    0   15    7   -0.000195   -0.000043
   -7   -4    0   16    7   -0.000101   -0.000050
   -7   -4    0   17    7   -0.000160    0.000024
   -7   -4    0   18    7    0.000037   -0.000028
   -7   -4    0    1    8   -0.000135    0.000201
   -7   -4    0    2    8   -0.000177   -0.000125
   -7   -4    0    3    8   -0.000271    0.000015
   -7   -4    0    4    8    0.000105   -0.000031
   -7   -4    0    5    8    0.000354   -0.000253
   -7   -4    0    6    8    0.000157   -0.000066
   -7   -4    0    7    8    0.000149   -0.000007
   -7   -4    0    8    8    0.000037    0.000000
   -7   -4    0    9    8   -0.000040   -0.000022
   -7   -4    0   10    8   -0.000006    0.000004
   -7   -4    0   11    8    0.000156   -0.000057
   -7   -4    0   12    8   -0.000100   -0.000008
   -7   -4    0   13    8   -0.000044   -0.000000
   -7   -4    0   14    8   -0.000022   -0.000005
   -7   -4    0   15    8    0.000089    0.000057
   -7   -4    0   16    8    0.000008    0.000024
   -7   -4    0   17    8   -0.000093   -0.000016
   -7   -4    0   18    8   -0.000067   -0.000003
   -7   -4    0    1    9    0.000265   -0.000012
   -7   -4    0    2    9   -0.000123   -0.000038
   -7   -4    0    3    9    0.000032    0.000026
   -7   -4    0    4    9   -0.000067   -0.000019
   -7   -4    0    5    9   -0.000083   -0.000044
   -7   -4    0    6    9    0.000016    0.000030
   -7   -4    0    7    9    0.000073   -0.000037
   -7   -4    0    8    9   -0.000021   -0.000054
   -7   -4    0    9    9   -0.000003    0.000001
   -7   -4    0   10    9   -0.000016   -0.000007
   -7   -4    0   11    9   -0.000095   -0.000024
   -7   -4    0   12    9   -0.000043   -0.000033
   -7   -4    0   13    9   -0.000027   -0.000011
   -7   -4    0   14    9    0.000005   -0.000010
   -7   -4    0   15    9   -0.000003   -0.000010
   -7   -4    0   16    9   -0.000000    0.000004
   -7   -4    0   17    9   -0.000024    0.000023
   -7   -4    0   18    9   -0.000002    0.000010
   -7   -4    0    1   10    0.000051    0.000041
   -7   -4    0    2   10    0.000187    0.000009
   -7   -4    0    3   10   -0.000000   -0.000009
   -7   -4    0    4   10    0.000028   -0.000009
   -7   -4    0    5   10    0.000048   -0.000015
   -7   -4    0    6   10   -0.000108    0.000004
   -7   -4    0    7   10    0.000017   -0.000012
   -7   -4    0    8   10    0.000009    0.000025
   -7   -4    0    9   10    0.000029   -0.000009
   -7   -4    0   10   10    0.000003   -0.000001
   -7   -4    0   11   10   -0.000026    0.000000
   -7   -4    0   12   10    0.000062   -0.000014
   -7   -4    0   13   10   -0.000012    0.000001
   -7   -4    0   14   10   -0.000002   -0.000005
   -7   -4    0   15   10   -0.000018    0.000010
   -7   -4    0   16   10   -0.000012   -0.000009
   -7   -4    0   17   10   -0.000007   -0.000013
   -7   -4    0   18   10   -0.000031   -0.000009
   -7   -4    0    1   11    0.000014   -0.000039
   -7   -4    0    2   11   -0.000074    0.000010
   -7   -4    0    3   11   -0.000284    0.000001
   -7   -4    0    4   11    0.000067    0.000007
   -7   -4    0    5   11   -0.000125    0.000056
   -7   -4    0    6   11    0.000008    0.000081
   -7   -4    0    7   11    0.000033   -0.000023
   -7   -4    0    8   11    0.000170    0.000164
   -7   -4    0    9   11    0.000085    0.000033
   -7   -4    0   10   11    0.000020    0.000012
   -7   -4    0   11   11    0.000017    0.000007
   -7   -4    0   12   11   -0.000013    0.000010
   -7   -4    0   13   11    0.000013    0.000020
   -7   -4    0   14   11    0.000031    0.000022
   -7   -4    0   15   11   -0.000008   -0.000035
   -7   -4    0   16   11    0.000018    0.000018
   -7   -4    0   17   11    0.000036    0.000031
   -7   -4    0   18   11    0.000009   -0.000007
   -7   -4    0    1   12    0.000036    0.000001
   -7   -4    0    2   12    0.000030    0.000031
   -7   -4    0    3   12   -0.000162    0.000095
   -7   -4    0    4   12   -0.000370    0.000030
   -7   -4    0    5   12    0.000104    0.000005
   -7   -4    0    6   12   -0.000159   -0.000108
   -7   -4    0    7   12    0.000084   -0.000035
   -7   -4    0    8   12    0.000003    0.000012
   -7   -4    0    9   12    0.000049   -0.000041
   -7   -4    0   10   12   -0.000066    0.000006
   -7   -4    0   11   12   -0.000013    0.000012
   -7   -4    0   12   12   -0.000012    0.000007
   -7   -4    0   13   12   -0.000024    0.000010
   -7   -4    0   14   12    0.000010   -0.000006
   -7   -4    0   15   12    0.000006    0.000014
   -7   -4    0   16   12   -0.000026   -0.000005
   -7   -4    0   17   12   -0.000029    0.000004
   -7   -4    0   18   12    0.000014   -0.000002
   -7   -4    0    1   13   -0.000122    0.000042
   -7   -4    0    2   13   -0.000061    0.000017
   -7   -4    0    3   13   -0.000044   -0.000005
   -7   -4    0    4   13   -0.000002    0.000015
   -7   -4    0    5   13   -0.000065   -0.000037
   -7   -4    0    6   13    0.000147    0.000049
   -7   -4    0    7   13    0.000036   -0.000007
   -7   -4    0    8   13   -0.000068   -0.000043
   -7   -4    0    9   13   -0.000027    0.000003
   -7   -4    0   10   13   -0.000018   -0.000002
   -7   -4    0   11   13    0.000011   -0.000010
   -7   -4    0   12   13   -0.000032    0.000006
   -7   -4    0   13   13   -0.000004   -0.000000
   -7   -4    0   14   13    0.000002    0.000002
   -7   -4    0   15   13    0.000030    0.000002
   -7   -4    0   16   13    0.000015    0.000003
   -7   -4    0   17   13    0.000027    0.000001
   -7   -4    0   18   13   -0.000008    0.000008
   -7   -4    0    1   14   -0.000062    0.000082
   -7   -4    0    2   14    0.000130   -0.000025
   -7   -4    0    3   14   -0.000025   -0.000011
   -7   -4    0    4   14    0.000019    0.000005
   -7   -4    0    5   14    0.000101   -0.000029
   -7   -4    0    6   14   -0.000092   -0.000049
   -7   -4    0    7   14    0.000039   -0.000007
   -7   -4    0    8   14    0.000021    0.000010
   -7   -4    0    9   14   -0.000003   -0.000004
   -7   -4    0   10   14   -0.000009    0.000001
   -7   -4    0   11   14    0.000036   -0.000002
   -7   -4    0   12   14    0.000021    0.000001
   -7   -4    0   13   14   -0.000007    0.000006
   -7   -4    0   14   14    0.000000    0.000002
   -7   -4    0   15   14    0.000025    0.000011
   -7   -4    0   16   14    0.000007    0.000002
   -7   -4    0   17   14   -0.000001   -0.000025
   -7   -4    0   18   14   -0.000009   -0.000003
   -7   -4    0    1   15   -0.000030   -0.000080
   -7   -4    0    2   15   -0.000049    0.000052
   -7   -4    0    3   15    0.000053   -0.000031
   -7   -4    0    4   15   -0.000023    0.000003
   -7   -4    0    5   15    0.000022    0.000114
   -7   -4    0    6   15   -0.000064    0.000023
   -7   -4    0    7   15   -0.000109    0.000020
   -7   -4    0    8   15    0.000135    0.000090
   -7   -4    0    9   15    0.000008   -0.000001
   -7   -4    0   10   15    0.000008    0.000006
   -7   -4    0   11   15    0.000041    0.000032
   -7   -4    0   12   15   -0.000013    0.000000
   -7   -4    0   13   15    0.000027    0.000017
   -7   -4    0   14   15    0.000019    0.000020
   -7   -4    0   15   15   -0.000005   -0.000003
   -7   -4    0   16   15   -0.000005   -0.000019
   -7   -4    0   17   15    0.000104    0.000010
   -7   -4    0   18   15    0.000024   -0.000013
   -7   -4    0    1   16    0.000029   -0.000014
   -7   -4    0    2   16   -0.000071    0.000061
   -7   -4    0    3   16    0.000098   -0.000026
   -7   -4    0    4   16    0.000021    0.000026
   -7   -4    0    5   16    0.000002    0.000050
   -7   -4    0    6   16   -0.000083   -0.000034
   -7   -4    0    7   16   -0.000031   -0.000001
   -7   -4    0    8   16   -0.000024   -0.000011
   -7   -4    0    9   16   -0.000009    0.000003
   -7   -4    0   10   16    0.000004    0.000009
   -7   -4    0   11   16   -0.000010    0.000013
   -7   -4    0   12   16    0.000017    0.000013
   -7   -4    0   13   16    0.000010   -0.000002
   -7   -4    0   14   16    0.000005   -0.000001
   -7   -4    0   15   16    0.000015   -0.000007
   -7   -4    0   16   16    0.000005   -0.000005
   -7   -4    0   17   16   -0.000000    0.000062
   -7   -4    0   18   16    0.000052   -0.000001
   -7   -4    0    1   17    0.000041   -0.000036
   -7   -4    0    2   17    0.000035    0.000021
   -7   -4    0    3   17    0.000004    0.000002
   -7   -4    0    4   17   -0.000029    0.000020
   -7   -4    0    5   17    0.000071   -0.000008
   -7   -4    0    6   17   -0.000090    0.000134
   -7   -4    0    7   17    0.000142    0.000018
   -7   -4    0    8   17    0.000146    0.000011
   -7   -4    0    9   17    0.000020    0.000003
   -7   -4    0   10   17   -0.000006   -0.000016
   -7   -4    0   11   17    0.000013    0.000020
   -7   -4    0   12   17   -0.000011   -0.000002
   -7   -4    0   13   17   -0.000021    0.000002
   -7   -4    0   14   17   -0.000001   -0.000035
   -7   -4    0   15   17    0.000020   -0.000012
   -7   -4    0   16   17   -0.000028    0.000033
   -7   -4    0   17   17    0.000000    0.000009
   -7   -4    0   18   17   -0.000018    0.000001
   -7   -4    0    1   18    0.000025   -0.000046
   -7   -4    0    2   18    0.000017    0.000040
   -7   -4    0    3   18    0.000090   -0.000095
   -7   -4    0    4   18   -0.000147   -0.000026
   -7   -4    0    5   18   -0.000105    0.000081
   -7   -4    0    6   18    0.000183    0.000029
   -7   -4    0    7   18   -0.000019    0.000046
   -7   -4    0    8   18    0.000000   -0.000003
   -7   -4    0    9   18    0.000007    0.000031
   -7   -4    0   10   18   -0.000030   -0.000005
   -7   -4    0   11   18    0.000009   -0.000011
   -7   -4    0   12   18    0.000018    0.000011
   -7   -4    0   13   18    0.000002   -0.000001
   -7   -4    0   14   18    0.000015   -0.000001
   -7   -4    0   15   18    0.000012   -0.000033
   -7   -4    0   16   18    0.000050    0.000006
   -7   -4    0   17   18    0.000017    0.000003
   -7   -4    0   18   18   -0.000003   -0.000002
   -7   -3    0    1    1   -0.000008    0.000040
   -7   -3    0    2    1    0.000525    0.000368
   -7   -3    0    3    1    0.000979    0.000174
   -7   -3    0    4    1   -0.000024    0.000021
   -7   -3    0    5    1    0.000158   -0.000048
   -7   -3    0    6    1   -0.000631   -0.000523
   -7   -3    0    7    1    0.000269   -0.000007
   -7   -3    0    8    1    0.000134    0.000133
   -7   -3    0    9    1   -0.000169   -0.000053
   -7   -3    0   10    1    0.000008    0.000013
   -7   -3    0   11    1    0.000042   -0.000018
   -7   -3    0   12    1   -0.000017    0.000005
   -7   -3    0   13    1    0.000044    0.000028
   -7   -3    0   14    1   -0.000010   -0.000016
   -7   -3    0   15    1    0.000143    0.000027
   -7   -3    0   16    1   -0.000129   -0.000089
   -7   -3    0   17    1    0.000128   -0.000019
   -7   -3    0   18    1   -0.000046    0.000057
   -7   -3    0    1    2   -0.000217    0.000129
   -7   -3    0    2    2   -0.000000    0.000019
   -7   -3    0    3    2   -0.000152   -0.000121
   -7   -3    0    4    2   -0.001439   -0.000150
   -7   -3    0    5    2    0.000320   -0.000245
   -7   -3    0    6    2   -0.000247   -0.000034
   -7   -3    0    7    2    0.000089   -0.000024
   -7   -3    0    8    2    0.000091    0.000107
   -7   -3    0    9    2    0.000088   -0.000026
   -7   -3    0   10    2   -0.000189    0.000009
   -7   -3    0   11    2    0.000070   -0.000006
   -7   -3    0   12    2   -0.000031   -0.000030
   -7   -3    0   13    2   -0.000068    0.000061
   -7   -3    0   14    2    0.000134    0.000027
   -7   -3    0   15    2    0.000095    0.000033
   -7   -3    0   16    2    0.000036   -0.000024
   -7   -3    0   17    2    0.000041    0.000013
   -7   -3    0   18    2    0.000014   -0.000018
   -7   -3    0    1    3    0.001409   -0.000188
   -7   -3    0    2    3   -0.000142   -0.000081
   -7   -3    0    3    3   -0.000013   -0.000027
   -7   -3    0    4    3   -0.000031   -0.000068
   -7   -3    0    5    3   -0.001291    0.000054
   -7   -3    0    6    3    0.000320   -0.000023
   -7   -3    0    7    3    0.000044    0.000053
   -7   -3    0    8    3    0.000039    0.000095
   -7   -3    0    9    3   -0.000048    0.000016
   -7   -3    0   10    3    0.000033    0.000025
   -7   -3    0   11    3   -0.000402   -0.000018
   -7   -3    0   12    3   -0.000180   -0.000101
   -7   -3    0   13    3    0.000019   -0.000062
   -7   -3    0   14    3   -0.000006    0.000006
   -7   -3    0   15    3    0.000162   -0.000030
   -7   -3    0   16    3    0.000069   -0.000057
   -7   -3    0   17    3    0.000032   -0.000044
   -7   -3    0   18    3   -0.000119   -0.000048
   -7   -3    0    1    4   -0.000072   -0.000041
   -7   -3    0    2    4   -0.001340    0.000233
   -7   -3    0    3    4   -0.000042   -0.000105
   -7   -3    0    4    4   -0.000029    0.000148
   -7   -3    0    5    4   -0.000412    0.000333
   -7   -3    0    6    4    0.000285   -0.000307
   -7   -3    0    7    4   -0.000027    0.000140
   -7   -3    0    8    4   -0.000257   -0.000170
   -7   -3    0    9    4   -0.000230    0.000005
   -7   -3    0   10    4    0.000043    0.000045
   -7   -3    0   11    4   -0.000020    0.000104
   -7   -3    0   12    4   -0.000364    0.000028
   -7   -3    0   13    4    0.000082   -0.000040
   -7   -3    0   14    4   -0.000058   -0.000008
   -7   -3    0   15    4    0.000191    0.000027
   -7   -3    0   16    4   -0.000009   -0.000005
   -7   -3    0   17    4   -0.000134    0.000006
   -7   -3    0   18    4    0.000179   -0.000024
   -7   -3    0    1    5    0.000057   -0.000036
   -7   -3    0    2    5    0.000459    0.000261
   -7   -3    0    3    5    0.001118    0.000222
   -7   -3    0    4    5    0.000284    0.000024
   -7   -3    0    5    5   -0.000001    0.000120
   -7   -3    0    6    5    0.000052   -0.000192
   -7   -3    0    7    5   -0.000577   -0.000262
   -7   -3    0    8    5   -0.001877   -0.000769
   -7   -3    0    9    5   -0.000018    0.000057
   -7   -3    0   10    5   -0.000029    0.000046
   -7   -3    0   11    5   -0.000144   -0.000093
   -7   -3    0   12    5    0.000250    0.000074
   -7   -3    0   13    5   -0.000082    0.000059
   -7   -3    0   14    5   -0.000210   -0.000102
   -7   -3    0   15    5   -0.000298   -0.000082
   -7   -3    0   16    5    0.000109   -0.000143
   -7   -3    0   17    5    0.000160    0.000087
   -7   -3    0   18    5    0.000307    0.000143
   -7   -3    0    1    6   -0.000183    0.000125
   -7   -3    0    2    6   -0.000067   -0.000000
   -7   -3    0    3    6   -0.000178    0.000189
   -7   -3    0    4    6   -0.000116    0.000206
   -7   -3    0    5    6   -0.000256   -0.000091
   -7   -3    0    6    6   -0.000089   -0.000227
   -7   -3    0    7    6    0.000770   -0.000715
   -7   -3    0    8    6   -0.000913   -0.000039
   -7   -3    0    9    6   -0.000062   -0.000008
   -7   -3    0   10    6   -0.000148    0.000043
   -7   -3    0   11    6    0.000229   -0.000065
   -7   -3    0   12    6   -0.000108    0.000122
   -7   -3    0   13    6   -0.000267    0.000210
   -7   -3    0   14    6    0.000114    0.000007
   -7   -3    0   15    6    0.000181   -0.000024
   -7   -3    0   16    6    0.000148    0.000045
   -7   -3    0   17    6    0.000324   -0.000286
   -7   -3    0   18    6   -0.000175    0.000073
   -7   -3    0    1    7   -0.000252    0.000147
   -7   -3    0    2    7   -0.000301   -0.000135
   -7   -3    0    3    7   -0.000227   -0.000032
   -7   -3    0    4    7   -0.000954   -0.000274
   -7   -3    0    5    7    0.000416   -0.000176
   -7   -3    0    6    7    0.000798    0.000434
   -7   -3    0    7    7   -0.000003    0.000002
   -7   -3    0    8    7    0.000475    0.000125
   -7   -3    0    9    7   -0.000170   -0.000076
   -7   -3    0   10    7   -0.000050   -0.000050
   -7   -3    0   11    7   -0.000213   -0.000127
   -7   -3    0   12    7   -0.000271   -0.000066
   -7   -3    0   13    7    0.000048   -0.000047
   -7   -3    0   14    7    0.000002    0.000029
   -7   -3    0   15    7    0.000105   -0.000026
   -7   -3    0   16    7   -0.000214    0.000001
   -7   -3    0   17    7   -0.000035   -0.000007
   -7   -3    0   18    7    0.000114    0.000014
   -7   -3    0    1    8    0.000138   -0.000168
   -7   -3    0    2    8   -0.000020    0.000056
   -7   -3    0    3    8    0.000228    0.000057
   -7   -3    0    4    8   -0.000207   -0.000193
   -7   -3    0    5    8   -0.000491    0.000035
   -7   -3    0    6    8    0.000306    0.000358
   -7   -3    0    7    8   -0.000036    0.000030
   -7   -3    0    8    8    0.000139   -0.000006
   -7   -3    0    9    8    0.000109    0.000030
   -7   -3    0   10    8    0.000028   -0.000071
   -7   -3    0   11    8   -0.000246   -0.000053
   -7   -3    0   12    8    0.000044   -0.000037
   -7   -3    0   13    8   -0.000049   -0.000052
   -7   -3    0   14    8    0.000024   -0.000021
   -7   -3    0   15    8   -0.000247   -0.000061
   -7   -3    0   16    8   -0.000024   -0.000012
   -7   -3    0   17    8    0.000122   -0.000097
   -7   -3    0   18    8   -0.000005   -0.000024
   -7   -3    0    1    9   -0.000265   -0.000021
   -7   -3    0    2    9    0.000067    0.000031
   -7   -3    0    3    9    0.000030   -0.000015
   -7   -3    0    4    9    0.000174    0.000077
   -7   -3    0    5    9    0.000019    0.000018
   -7   -3    0    6    9    0.000069   -0.000090
   -7   -3    0    7    9   -0.000168    0.000018
   -7   -3    0    8    9   -0.000218   -0.000100
   -7   -3    0    9    9   -0.000010    0.000020
   -7   -3    0   10    9   -0.000001    0.000015
   -7   -3    0   11    9    0.000085    0.000012
   -7   -3    0   12    9    0.000055    0.000036
   -7   -3    0   13    9    0.000040    0.000004
   -7   -3    0   14    9   -0.000023   -0.000000
   -7   -3    0   15    9   -0.000022    0.000014
   -7   -3    0   16    9    0.000053    0.000017
   -7   -3    0   17    9    0.000024    0.000015
   -7   -3    0   18    9    0.000001    0.000011
   -7   -3    0    1   10   -0.000077    0.000006
   -7   -3    0    2   10   -0.000212    0.000026
   -7   -3    0    3   10   -0.000040    0.000003
   -7   -3    0    4   10   -0.000049   -0.000007
   -7   -3    0    5   10    0.000038    0.000062
   -7   -3    0    6   10    0.000141    0.000038
   -7   -3    0    7   10   -0.000103    0.000051
   -7   -3    0    8   10    0.000031    0.000012
   -7   -3    0    9   10   -0.000009   -0.000000
   -7   -3    0   10   10    0.000001    0.000006
   -7   -3    0   11   10   -0.000013    0.000019
   -7   -3    0   12   10   -0.000063    0.000004
   -7   -3    0   13   10    0.000048   -0.000012
   -7   -3    0   14   10    0.000001    0.000001
   -7   -3    0   15   10    0.000002   -0.000009
   -7   -3    0   16   10   -0.000002   -0.000001
   -7   -3    0   17   10   -0.000005    0.000011
   -7   -3    0   18   10    0.000052   -0.000000
   -7   -3    0    1   11    0.000009    0.000036
   -7   -3    0    2   11   -0.000002   -0.000010
   -7   -3    0    3   11    0.000358   -0.000005
   -7   -3    0    4   11    0.000021    0.000009
   -7   -3    0    5   11    0.000125    0.000094
   -7   -3    0    6   11   -0.000193   -0.000175
   -7   -3    0    7   11   -0.000033   -0.000039
   -7   -3    0    8   11   -0.000353   -0.000190
   -7   -3    0    9   11   -0.000093   -0.000027
   -7   -3    0   10   11    0.000015    0.000017
   -7   -3    0   11   11   -0.000001    0.000016
   -7   -3    0   12   11    0.000043   -0.000010
   -7   -3    0   13   11   -0.000009    0.000019
   -7   -3    0   14   11   -0.000051   -0.000031
   -7   -3    0   15   11    0.000012    0.000019
   -7   -3    0   16   11   -0.000036   -0.000051
   -7   -3    0   17   11   -0.000039    0.000020
   -7   -3    0   18   11    0.000026    0.000018
   -7   -3    0    1   12    0.000025    0.000005
   -7   -3    0    2   12   -0.000130   -0.000024
   -7   -3    0    3   12    0.000152   -0.000136
   -7   -3    0    4   12    0.000335   -0.000017
   -7   -3    0    5   12   -0.000275    0.000048
   -7   -3    0    6   12    0.000164   -0.000039
   -7   -3    0    7   12   -0.000078    0.000141
   -7   -3    0    8   12   -0.000052    0.000026
   -7   -3    0    9   12   -0.000070    0.000032
   -7   -3    0   10   12    0.000068    0.000005
   -7   -3    0   11   12   -0.000039    0.000013
   -7   -3    0   12   12   -0.000004   -0.000018
   -7   -3    0   13   12    0.000054   -0.000057
   -7   -3    0   14   12   -0.000036    0.000006
   -7   -3    0   15   12    0.000025    0.000020
   -7   -3    0   16   12    0.000010   -0.000013
   -7   -3    0   17   12    0.000028    0.000008
   -7   -3    0   18   12   -0.000012   -0.000014
   -7   -3    0    1   13    0.000103   -0.000024
   -7   -3    0    2   13    0.000033   -0.000021
   -7   -3    0    3   13    0.000033   -0.000015
   -7   -3    0    4   13    0.000133    0.000001
   -7   -3    0    5   13   -0.000106    0.000115
   -7   -3    0    6   13   -0.000186   -0.000010
   -7   -3    0    7   13   -0.000035   -0.000007
   -7   -3    0    8   13    0.000007    0.000051
   -7   -3    0    9   13    0.000041    0.000011
   -7   -3    0   10   13    0.000038   -0.000002
   -7   -3    0   11   13    0.000019    0.000033
   -7   -3    0   12   13    0.000054   -0.000010
   -7   -3    0   13   13    0.000004    0.000014
   -7   -3    0   14   13   -0.000001    0.000007
   -7   -3    0   15   13   -0.000030   -0.000018
   -7   -3    0   16   13   -0.000004   -0.000019
   -7   -3    0   17   13    0.000003   -0.000003
   -7   -3    0   18   13   -0.000017   -0.000007
   -7   -3    0    1   14    0.000048   -0.000073
   -7   -3    0    2   14   -0.000125    0.000003
   -7   -3    0    3   14    0.000002   -0.000005
   -7   -3    0    4   14   -0.000042   -0.000019
   -7   -3    0    5   14   -0.000199    0.000054
   -7   -3    0    6   14    0.000121    0.000067
   -7   -3    0    7   14    0.000028    0.000013
   -7   -3    0    8   14    0.000028    0.000003
   -7   -3    0    9   14   -0.000015   -0.000001
   -7   -3    0   10   14    0.000013   -0.000013
   -7   -3    0   11   14   -0.000058    0.000001
   -7   -3    0   12   14   -0.000039   -0.000011
   -7   -3    0   13   14   -0.000004   -0.000015
   -7   -3    0   14   14   -0.000000   -0.000005
   -7   -3    0   15   14    0.000001   -0.000005
   -7   -3    0   16   14   -0.000018    0.000004
   -7   -3    0   17   14    0.000011    0.000005
   -7   -3    0   18   14    0.000001   -0.000002
   -7   -3    0    1   15    0.000074    0.000072
   -7   -3    0    2   15   -0.000047   -0.000010
   -7   -3    0    3   15   -0.000136   -0.000039
   -7   -3    0    4   15   -0.000100   -0.000070
   -7   -3    0    5   15    0.000336    0.000029
   -7   -3    0    6   15   -0.000246    0.000102
   -7   -3    0    7   15    0.000138   -0.000010
   -7   -3    0    8   15    0.000327    0.000145
   -7   -3    0    9   15    0.000042   -0.000006
   -7   -3    0   10   15    0.000012   -0.000014
   -7   -3    0   11   15    0.000005    0.000003
   -7   -3    0   12   15    0.000006   -0.000029
   -7   -3    0   13   15   -0.000020   -0.000004
   -7   -3    0   14   15    0.000012    0.000002
   -7   -3    0   15   15   -0.000006   -0.000017
   -7   -3    0   16   15   -0.000092   -0.000001
   -7   -3    0   17   15   -0.000107    0.000003
   -7   -3    0   18   15   -0.000007   -0.000004
   -7   -3    0    1   16   -0.000032    0.000060
   -7   -3    0    2   16    0.000040   -0.000066
   -7   -3    0    3   16   -0.000076   -0.000018
   -7   -3    0    4   16    0.000013    0.000013
   -7   -3    0    5   16   -0.000193    0.000003
   -7   -3    0    6   16   -0.000130   -0.000086
   -7   -3    0    7   16    0.000147   -0.000018
   -7   -3    0    8   16   -0.000033    0.000012
   -7   -3    0    9   16   -0.000065   -0.000006
[...]
    7    6    0   16   14   -0.000001   -0.000000
    7    6    0   17   14   -0.000015    0.000006
    7    6    0   18   14    0.000007    0.000001
    7    6    0    1   15    0.000047   -0.000037
    7    6    0    2   15   -0.000080    0.000013
    7    6    0    3   15   -0.000017    0.000001
    7    6    0    4   15   -0.000046   -0.000008
    7    6    0    5   15   -0.000087    0.000037
    7    6    0    6   15    0.000068    0.000060
    7    6    0    7   15   -0.000013   -0.000024
    7    6    0    8   15    0.000024   -0.000005
    7    6    0    9   15   -0.000006   -0.000006
    7    6    0   10   15    0.000004   -0.000000
    7    6    0   11   15   -0.000045    0.000005
    7    6    0   12   15   -0.000012   -0.000018
    7    6    0   13   15   -0.000007   -0.000007
    7    6    0   14   15    0.000002   -0.000008
    7    6    0   15   15    0.000001   -0.000007
    7    6    0   16   15   -0.000032   -0.000002
    7    6    0   17   15    0.000038    0.000001
    7    6    0   18   15    0.000017    0.000029
    7    6    0    1   16    0.000040   -0.000056
    7    6    0    2   16   -0.000033   -0.000011
    7    6    0    3   16   -0.000010   -0.000001
    7    6    0    4   16   -0.000024   -0.000013
    7    6    0    5   16   -0.000077    0.000001
    7    6    0    6   16   -0.000018   -0.000009
    7    6    0    7   16    0.000075   -0.000005
    7    6    0    8   16   -0.000017    0.000029
    7    6    0    9   16   -0.000004   -0.000012
    7    6    0   10   16    0.000014    0.000004
    7    6    0   11   16   -0.000012   -0.000012
    7    6    0   12   16    0.000005   -0.000002
    7    6    0   13   16   -0.000016    0.000004
    7    6    0   14   16   -0.000005    0.000000
    7    6    0   15   16    0.000026    0.000003
    7    6    0   16   16   -0.000006    0.000001
    7    6    0   17   16    0.000005   -0.000005
    7    6    0   18   16    0.000033   -0.000002
    7    6    0    1   17   -0.000020    0.000012
    7    6    0    2   17   -0.000041    0.000031
    7    6    0    3   17    0.000191    0.000009
    7    6    0    4   17    0.000078    0.000059
    7    6    0    5   17   -0.000090   -0.000005
    7    6    0    6   17   -0.000019   -0.000032
    7    6    0    7   17    0.000006    0.000015
    7    6    0    8   17   -0.000062   -0.000009
    7    6    0    9   17   -0.000055   -0.000014
    7    6    0   10   17    0.000016    0.000019
    7    6    0   11   17    0.000017   -0.000009
    7    6    0   12   17    0.000017   -0.000001
    7    6    0   13   17   -0.000005   -0.000001
    7    6    0   14   17    0.000006    0.000025
    7    6    0   15   17    0.000059    0.000007
    7    6    0   16   17    0.000015   -0.000026
    7    6    0   17   17   -0.000001   -0.000005
    7    6    0   18   17   -0.000012    0.000006
    7    6    0    1   18   -0.000051    0.000043
    7    6    0    2   18    0.000049    0.000010
    7    6    0    3   18    0.000056   -0.000053
    7    6    0    4   18   -0.000106   -0.000004
    7    6    0    5   18    0.000026   -0.000021
    7    6    0    6   18   -0.000031   -0.000043
    7    6    0    7   18    0.000056    0.000003
    7    6    0    8   18   -0.000007    0.000015
    7    6    0    9   18   -0.000012   -0.000010
    7    6    0   10   18   -0.000014    0.000001
    7    6    0   11   18    0.000032    0.000008
    7    6    0   12   18    0.000004   -0.000012
    7    6    0   13   18   -0.000016    0.000017
    7    6    0   14   18   -0.000004    0.000003
    7    6    0   15   18    0.000026    0.000017
    7    6    0   16   18    0.000033    0.000005
    7    6    0   17   18    0.000013   -0.000006
    7    6    0   18   18   -0.000000   -0.000003
    7    7    0    1    1   -0.000005    0.000000
    7    7    0    2    1   -0.000196   -0.000137
    7    7    0    3    1    0.000784    0.000155
    7    7    0    4    1    0.000020    0.000146
    7    7    0    5    1    0.000042   -0.000036
    7    7    0    6    1    0.000089    0.000007
    7    7    0    7    1    0.000020   -0.000088
    7    7    0    8    1   -0.000188   -0.000071
    7    7    0    9    1   -0.000190   -0.000040
    7    7    0   10    1   -0.000037    0.000019
    7    7    0   11    1    0.000003   -0.000034
    7    7    0   12    1   -0.000029   -0.000021
    7    7    0   13    1    0.000004    0.000010
    7    7    0   14    1   -0.000024   -0.000004
    7    7    0   15    1   -0.000003   -0.000018
    7    7    0   16    1    0.000026   -0.000049
    7    7    0   17    1   -0.000006    0.000005
    7    7    0   18    1    0.000039    0.000018
    7    7    0    1    2   -0.000196    0.000137
    7    7    0    2    2    0.000006   -0.000000
    7    7    0    3    2   -0.000344    0.000200
    7    7    0    4    2   -0.000590   -0.000103
    7    7    0    5    2    0.000246   -0.000076
    7    7    0    6    2   -0.000055    0.000005
    7    7    0    7    2    0.000014   -0.000046
    7    7    0    8    2    0.000017   -0.000038
    7    7    0    9    2    0.000115   -0.000088
    7    7    0   10    2   -0.000154   -0.000004
    7    7    0   11    2    0.000063    0.000028
    7    7    0   12    2   -0.000040   -0.000012
    7    7    0   13    2    0.000007    0.000036
    7    7    0   14    2   -0.000020   -0.000026
    7    7    0   15    2    0.000055    0.000022
    7    7    0   16    2    0.000054    0.000012
    7    7    0   17    2   -0.000020    0.000010
    7    7    0   18    2    0.000043    0.000014
    7    7    0    1    3    0.000784   -0.000155
    7    7    0    2    3   -0.000344   -0.000200
    7    7    0    3    3   -0.000008    0.000000
    7    7    0    4    3    0.000054    0.000030
    7    7    0    5    3    0.000037    0.000063
    7    7    0    6    3   -0.000006    0.000043
    7    7    0    7    3   -0.000055    0.000002
    7    7    0    8    3    0.000066   -0.000022
    7    7    0    9    3    0.000003    0.000011
    7    7    0   10    3    0.000018   -0.000004
    7    7    0   11    3    0.000020    0.000022
    7    7    0   12    3    0.000010   -0.000005
    7    7    0   13    3    0.000000   -0.000006
    7    7    0   14    3    0.000012   -0.000001
    7    7    0   15    3   -0.000011    0.000003
    7    7    0   16    3    0.000005    0.000009
    7    7    0   17    3   -0.000215    0.000020
    7    7    0   18    3   -0.000099   -0.000053
    7    7    0    1    4    0.000020   -0.000146
    7    7    0    2    4   -0.000590    0.000103
    7    7    0    3    4    0.000054   -0.000030
    7    7    0    4    4    0.000009   -0.000000
    7    7    0    5    4    0.000000   -0.000036
    7    7    0    6    4   -0.000055    0.000094
    7    7    0    7    4    0.000132   -0.000014
    7    7    0    8    4    0.000035   -0.000037
    7    7    0    9    4    0.000009    0.000001
    7    7    0   10    4    0.000002    0.000003
    7    7    0   11    4    0.000000    0.000005
    7    7    0   12    4    0.000012   -0.000003
    7    7    0   13    4   -0.000027   -0.000012
    7    7    0   14    4    0.000018   -0.000021
    7    7    0   15    4   -0.000008    0.000020
    7    7    0   16    4   -0.000005    0.000018
    7    7    0   17    4   -0.000074    0.000085
    7    7    0   18    4    0.000131    0.000004
    7    7    0    1    5    0.000042    0.000036
    7    7    0    2    5    0.000246    0.000076
    7    7    0    3    5    0.000037   -0.000063
    7    7    0    4    5    0.000000    0.000036
    7    7    0    5    5   -0.000033    0.000000
    7    7    0    6    5    0.000077   -0.000041
    7    7    0    7    5    0.000180    0.000017
    7    7    0    8    5    0.000140    0.000006
    7    7    0    9    5    0.000002   -0.000009
    7    7    0   10    5   -0.000007   -0.000004
    7    7    0   11    5   -0.000007    0.000071
    7    7    0   12    5   -0.000007    0.000008
    7    7    0   13    5   -0.000094    0.000025
    7    7    0   14    5    0.000023   -0.000019
    7    7    0   15    5   -0.000019    0.000050
    7    7    0   16    5    0.000009    0.000031
    7    7    0   17    5    0.000112   -0.000016
    7    7    0   18    5   -0.000023   -0.000011
    7    7    0    1    6    0.000089   -0.000007
    7    7    0    2    6   -0.000055   -0.000005
    7    7    0    3    6   -0.000006   -0.000043
    7    7    0    4    6   -0.000055   -0.000094
    7    7    0    5    6    0.000077    0.000041
    7    7    0    6    6    0.000073   -0.000000
    7    7    0    7    6   -0.000164    0.000096
    7    7    0    8    6    0.000139    0.000088
    7    7    0    9    6    0.000011    0.000010
    7    7    0   10    6    0.000000   -0.000013
    7    7    0   11    6   -0.000002   -0.000015
    7    7    0   12    6   -0.000008   -0.000020
    7    7    0   13    6    0.000009    0.000019
    7    7    0   14    6    0.000092    0.000001
    7    7    0   15    6   -0.000006   -0.000016
    7    7    0   16    6   -0.000007   -0.000037
    7    7    0   17    6   -0.000012   -0.000010
    7    7    0   18    6   -0.000019   -0.000028
    7    7    0    1    7    0.000020    0.000088
    7    7    0    2    7    0.000014    0.000046
    7    7    0    3    7   -0.000055   -0.000002
    7    7    0    4    7    0.000132    0.000014
    7    7    0    5    7    0.000180   -0.000017
    7    7    0    6    7   -0.000164   -0.000096
    7    7    0    7    7    0.000026   -0.000000
    7    7    0    8    7   -0.000192   -0.000002
    7    7    0    9    7    0.000028    0.000009
    7    7    0   10    7    0.000010    0.000003
    7    7    0   11    7    0.000107   -0.000021
    7    7    0   12    7    0.000010    0.000000
    7    7    0   13    7    0.000009    0.000022
    7    7    0   14    7   -0.000031    0.000002
    7    7    0   15    7   -0.000021   -0.000011
    7    7    0   16    7    0.000042    0.000005
    7    7    0   17    7    0.000022   -0.000033
    7    7    0   18    7    0.000016   -0.000040
    7    7    0    1    8   -0.000188    0.000071
    7    7    0    2    8    0.000017    0.000038
    7    7    0    3    8    0.000066    0.000022
    7    7    0    4    8    0.000035    0.000037
    7    7    0    5    8    0.000140   -0.000006
    7    7    0    6    8    0.000139   -0.000088
    7    7    0    7    8   -0.000192    0.000002
    7    7    0    8    8   -0.000052   -0.000000
    7    7    0    9    8    0.000027    0.000012
    7    7    0   10    8   -0.000011    0.000006
    7    7    0   11    8    0.000032    0.000017
    7    7    0   12    8   -0.000012    0.000028
    7    7    0   13    8   -0.000002    0.000023
    7    7    0   14    8    0.000010    0.000016
    7    7    0   15    8   -0.000006   -0.000007
    7    7    0   16    8    0.000037    0.000006
    7    7    0   17    8   -0.000048    0.000014
    7    7    0   18    8   -0.000003    0.000014
    7    7    0    1    9   -0.000190    0.000040
    7    7    0    2    9    0.000115    0.000088
    7    7    0    3    9    0.000003   -0.000011
    7    7    0    4    9    0.000009   -0.000001
    7    7    0    5    9    0.000002    0.000009
    7    7    0    6    9    0.000011   -0.000010
    7    7    0    7    9    0.000028   -0.000009
    7    7    0    8    9    0.000027   -0.000012
    7    7    0    9    9    0.000003    0.000000
    7    7    0   10    9   -0.000003   -0.000001
    7    7    0   11    9   -0.000000    0.000009
    7    7    0   12    9   -0.000003   -0.000002
    7    7    0   13    9   -0.000005    0.000003
    7    7    0   14    9   -0.000000   -0.000002
    7    7    0   15    9   -0.000002    0.000008
    7    7    0   16    9    0.000001    0.000005
    7    7    0   17    9    0.000087   -0.000003
    7    7    0   18    9    0.000013    0.000008
    7    7    0    1   10   -0.000037   -0.000019
    7    7    0    2   10   -0.000154    0.000004
    7    7    0    3   10    0.000018    0.000004
    7    7    0    4   10    0.000002   -0.000003
    7    7    0    5   10   -0.000007    0.000004
    7    7    0    6   10    0.000000    0.000013
    7    7    0    7   10    0.000010   -0.000003
    7    7    0    8   10   -0.000011   -0.000006
    7    7    0    9   10   -0.000003    0.000001
    7    7    0   10   10   -0.000007    0.000000
    7    7    0   11   10    0.000003    0.000006
    7    7    0   12   10    0.000001    0.000003
    7    7    0   13   10   -0.000002    0.000002
    7    7    0   14   10    0.000007   -0.000001
    7    7    0   15   10    0.000003    0.000001
    7    7    0   16   10    0.000001    0.000014
    7    7    0   17   10   -0.000021    0.000017
    7    7    0   18   10    0.000019    0.000007
    7    7    0    1   11    0.000003    0.000034
    7    7    0    2   11    0.000063   -0.000028
    7    7    0    3   11    0.000020   -0.000022
    7    7    0    4   11    0.000000   -0.000005
    7    7    0    5   11   -0.000007   -0.000071
    7    7    0    6   11   -0.000002    0.000015
    7    7    0    7   11    0.000107    0.000021
    7    7    0    8   11    0.000032   -0.000017
    7    7    0    9   11   -0.000000   -0.000009
    7    7    0   10   11    0.000003   -0.000006
    7    7    0   11   11   -0.000005    0.000000
    7    7    0   12   11    0.000006   -0.000007
    7    7    0   13   11   -0.000034   -0.000003
    7    7    0   14   11   -0.000004   -0.000005
    7    7    0   15   11   -0.000004    0.000015
    7    7    0   16   11   -0.000001    0.000025
    7    7    0   17   11    0.000007   -0.000018
    7    7    0   18   11   -0.000015   -0.000004
    7    7    0    1   12   -0.000029    0.000021
    7    7    0    2   12   -0.000040    0.000012
    7    7    0    3   12    0.000010    0.000005
    7    7    0    4   12    0.000012    0.000003
    7    7    0    5   12   -0.000007   -0.000008
    7    7    0    6   12   -0.000008    0.000020
    7    7    0    7   12    0.000010   -0.000000
    7    7    0    8   12   -0.000012   -0.000028
    7    7    0    9   12   -0.000003    0.000002
    7    7    0   10   12    0.000001   -0.000003
    7    7    0   11   12    0.000006    0.000007
    7    7    0   12   12    0.000003   -0.000000
    7    7    0   13   12    0.000002   -0.000005
    7    7    0   14   12   -0.000029   -0.000004
    7    7    0   15   12    0.000001    0.000005
    7    7    0   16   12   -0.000001    0.000006
    7    7    0   17   12    0.000021   -0.000011
    7    7    0   18   12   -0.000010    0.000010
    7    7    0    1   13    0.000004   -0.000010
    7    7    0    2   13    0.000007   -0.000036
    7    7    0    3   13    0.000000    0.000006
    7    7    0    4   13   -0.000027    0.000012
    7    7    0    5   13   -0.000094   -0.000025
    7    7    0    6   13    0.000009   -0.000019
    7    7    0    7   13    0.000009   -0.000022
    7    7    0    8   13   -0.000002   -0.000023
    7    7    0    9   13   -0.000005   -0.000003
    7    7    0   10   13   -0.000002   -0.000002
    7    7    0   11   13   -0.000034    0.000003
    7    7    0   12   13    0.000002    0.000005
    7    7    0   13   13   -0.000003    0.000000
    7    7    0   14   13    0.000002   -0.000000
    7    7    0   15   13    0.000016    0.000002
    7    7    0   16   13   -0.000011    0.000004
    7    7    0   17   13   -0.000005   -0.000011
    7    7    0   18   13    0.000002    0.000026
    7    7    0    1   14   -0.000024    0.000004
    7    7    0    2   14   -0.000020    0.000026
    7    7    0    3   14    0.000012    0.000001
    7    7    0    4   14    0.000018    0.000021
    7    7    0    5   14    0.000023    0.000019
    7    7    0    6   14    0.000092   -0.000001
    7    7    0    7   14   -0.000031   -0.000002
    7    7    0    8   14    0.000010   -0.000016
    7    7    0    9   14   -0.000000    0.000002
    7    7    0   10   14    0.000007    0.000001
    7    7    0   11   14   -0.000004    0.000005
    7    7    0   12   14   -0.000029    0.000004
    7    7    0   13   14    0.000002    0.000000
    7    7    0   14   14    0.000000   -0.000000
    7    7    0   15   14   -0.000014   -0.000006
    7    7    0   16   14   -0.000001    0.000005
    7    7    0   17   14    0.000004    0.000018
    7    7    0   18   14    0.000000    0.000005
    7    7    0    1   15   -0.000003    0.000018
    7    7    0    2   15    0.000055   -0.000022
    7    7    0    3   15   -0.000011   -0.000003
    7    7    0    4   15   -0.000008   -0.000020
    7    7    0    5   15   -0.000019   -0.000050
    7    7    0    6   15   -0.000006    0.000016
    7    7    0    7   15   -0.000021    0.000011
    7    7    0    8   15   -0.000006    0.000007
    7    7    0    9   15   -0.000002   -0.000008
    7    7    0   10   15    0.000003   -0.000001
    7    7    0   11   15   -0.000004   -0.000015
    7    7    0   12   15    0.000001   -0.000005
    7    7    0   13   15    0.000016   -0.000002
    7    7    0   14   15   -0.000014    0.000006
    7    7    0   15   15    0.000009   -0.000000
    7    7    0   16   15   -0.000004    0.000001
    7    7    0   17   15   -0.000039   -0.000020
    7    7    0   18   15   -0.000030   -0.000006
    7    7    0    1   16    0.000026    0.000049
    7    7    0    2   16    0.000054   -0.000012
    7    7    0    3   16    0.000005   -0.000009
    7    7    0    4   16   -0.000005   -0.000018
    7    7    0    5   16    0.000009   -0.000031
    7    7    0    6   16   -0.000007    0.000037
    7    7    0    7   16    0.000042   -0.000005
    7    7    0    8   16    0.000037   -0.000006
    7    7    0    9   16    0.000001   -0.000005
    7    7    0   10   16    0.000001   -0.000014
    7    7    0   11   16   -0.000001   -0.000025
    7    7    0   12   16   -0.000001   -0.000006
    7    7    0   13   16   -0.000011   -0.000004
    7    7    0   14   16   -0.000001   -0.000005
    7    7    0   15   16   -0.000004   -0.000001
    7    7    0   16   16   -0.000001   -0.000000
    7    7    0   17   16    0.000046   -0.000022
    7    7    0   18   16   -0.000019    0.000001
    7    7    0    1   17   -0.000006   -0.000005
    7    7    0    2   17   -0.000020   -0.000010
    7    7    0    3   17   -0.000215   -0.000020
    7    7    0    4   17   -0.000074   -0.000085
    7    7    0    5   17    0.000112    0.000016
    7    7    0    6   17   -0.000012    0.000010
    7    7    0    7   17    0.000022    0.000033
    7    7    0    8   17   -0.000048   -0.000014
    7    7    0    9   17    0.000087    0.000003
    7    7    0   10   17   -0.000021   -0.000017
    7    7    0   11   17    0.000007    0.000018
    7    7    0   12   17    0.000021    0.000011
    7    7    0   13   17   -0.000005    0.000011
    7    7    0   14   17    0.000004   -0.000018
    7    7    0   15   17   -0.000039    0.000020
    7    7    0   16   17    0.000046    0.000022
    7    7    0   17   17    0.000003   -0.000000
    7    7    0   18   17   -0.000003   -0.000001
    7    7    0    1   18    0.000039   -0.000018
    7    7    0    2   18    0.000043   -0.000014
    7    7    0    3   18   -0.000099    0.000053
    7    7    0    4   18    0.000131   -0.000004
    7    7    0    5   18   -0.000023    0.000011
    7    7    0    6   18   -0.000019    0.000028
    7    7    0    7   18    0.000016    0.000040
    7    7    0    8   18   -0.000003   -0.000014
    7    7    0    9   18    0.000013   -0.000008
    7    7    0   10   18    0.000019   -0.000007
    7    7    0   11   18   -0.000015    0.000004
    7    7    0   12   18   -0.000010   -0.000010
    7    7    0   13   18    0.000002   -0.000026
    7    7    0   14   18    0.000000   -0.000005
    7    7    0   15   18   -0.000030    0.000006
    7    7    0   16   18   -0.000019   -0.000001
    7    7    0   17   18   -0.000003    0.000001
    7    7    0   18   18   -0.000001    0.000000
